ITEM: TIMESTEP
1690000
ITEM: NUMBER OF ATOMS
1289
ITEM: BOX BOUNDS pp pp pp
-100 100
-100 100
-100 100
ITEM: ATOMS type x y z 
1 -2.01003 -7.05231 -12.4229 
1 -3.60521 -5.1803 -12.6343 
1 -0.133186 -5.35132 -12.5912 
1 1.8719 -6.76404 -12.5061 
1 3.43888 -5.19581 -12.599 
1 -7.36601 -1.6909 -12.3161 
2 -5.48023 -3.47254 -12.2707 
1 -5.52777 -0.13693 -12.8247 
2 -1.85466 -1.6803 -14.4073 
2 -3.6444 -1.69631 -12.5531 
1 -1.85668 -3.52943 -12.6202 
1 -0.183667 -1.78759 -12.5338 
1 -0.156114 -3.51601 -14.3463 
2 3.26003 -3.51427 -14.2273 
1 1.53325 -3.54265 -12.5413 
1 3.39735 -1.88634 -12.5071 
1 1.55244 -1.80468 -14.4555 
2 0.0153368 0.0685981 -14.3613 
2 1.75065 -0.0491324 -12.4372 
2 3.51594 -0.230957 -14.3533 
1 5.25671 -2.10469 -14.1807 
2 7.40014 -1.88922 -12.5086 
2 5.44854 -3.54126 -12.4224 
1 -1.80391 -12.3977 -7.0317 
1 1.55311 -12.4308 -7.21861 
1 -9.04265 -9.01791 -6.93891 
2 -5.33651 -10.5054 -8.67838 
1 -5.26261 -9.05435 -10.6209 
1 -7.18678 -9.0647 -8.85075 
1 -5.29375 -8.97381 -6.90425 
1 -7.16935 -10.584 -6.93335 
1 -1.83366 -10.6751 -8.91079 
1 -1.84472 -8.77685 -10.6193 
1 -3.54268 -10.735 -7.00381 
2 -3.47905 -8.78737 -8.68845 
1 -1.80151 -8.93586 -6.90086 
1 -0.139064 -8.84479 -8.91236 
1 0.0815579 -10.4854 -10.5747 
2 -0.0398015 -10.5448 -7.09079 
1 1.60548 -8.68947 -10.8266 
2 1.7128 -10.579 -8.92849 
1 3.43495 -10.6867 -7.18352 
2 3.41982 -8.81848 -8.88341 
1 1.71461 -8.83232 -7.05321 
1 5.18692 -10.5864 -8.92771 
1 7.03779 -8.72637 -8.88527 
1 5.27833 -8.74064 -7.18939 
1 6.98951 -10.5664 -7.28603 
1 5.33699 -8.61751 -10.5636 
1 8.82194 -9.00282 -7.16406 
1 -10.6121 -5.37274 -8.86174 
1 -8.72775 -5.21266 -10.4875 
1 -9.04957 -7.38121 -8.88539 
2 -8.91337 -5.2761 -6.99235 
2 -10.6516 -7.05788 -7.06165 
1 -7.17503 -7.17556 -10.4776 
1 -5.52318 -5.25365 -10.6645 
1 -6.98465 -5.36696 -8.82964 
1 -5.36182 -7.27088 -8.81185 
2 -7.19033 -7.26921 -7.22773 
1 -5.41529 -5.31886 -7.08792 
2 -3.707 -7.05993 -10.6829 
1 -1.90503 -5.2466 -10.5765 
1 -1.95052 -7.03194 -8.8673 
1 -3.7621 -5.28448 -8.88588 
1 -3.53843 -7.09336 -7.0086 
2 -1.94793 -5.28206 -7.01865 
1 -0.172728 -6.97646 -10.7041 
2 -0.069868 -7.16802 -7.19164 
2 0.00570113 -5.21934 -8.93319 
2 3.53387 -6.92887 -10.6209 
1 1.79366 -5.13193 -10.7363 
1 1.61594 -7.07934 -8.98265 
1 3.42361 -5.30489 -8.8691 
1 3.48416 -7.04951 -7.04338 
2 1.84546 -5.1885 -7.06396 
1 7.27405 -6.88361 -10.5241 
1 5.41194 -5.41136 -10.6612 
1 5.2388 -6.97808 -8.75097 
1 7.11304 -5.21845 -8.82421 
1 7.06879 -6.92409 -7.1456 
1 5.18809 -5.16815 -7.16216 
1 9.09925 -5.18636 -10.4898 
1 10.7889 -5.42986 -8.68592 
1 10.8148 -7.2846 -7.07321 
2 8.97053 -7.01319 -8.69694 
1 8.94036 -5.29715 -7.03423 
1 -12.3805 -1.78408 -6.84524 
1 -11.0232 -1.63283 -8.8369 
1 -9.13136 -1.81653 -10.5263 
1 -10.8498 -3.59402 -7.1604 
1 -9.01274 -3.49189 -8.85748 
1 -9.05184 -1.86267 -7.19182 
1 -8.96688 -0.0525845 -8.72051 
1 -7.27429 -3.44667 -10.6198 
1 -5.59605 -1.57702 -10.6255 
1 -7.23013 -1.86358 -8.82727 
1 -5.39066 -3.40674 -8.90767 
1 -7.16858 -3.52275 -7.15411 
1 -5.34778 -1.71231 -7.21055 
1 -5.357 -0.0294009 -8.84473 
1 -7.38954 0.0438851 -10.5751 
1 -7.11972 -0.0137667 -7.14616 
1 -3.66397 -3.50344 -10.7568 
1 -1.82151 -1.58257 -10.714 
1 -3.73057 -1.72449 -8.99144 
2 -1.91686 -3.39855 -8.84652 
1 -3.70847 -3.4927 -7.04942 
1 -1.85225 -1.65064 -7.104 
1 -0.10372 -1.78087 -8.93293 
1 -0.127494 -3.57199 -10.771 
1 -3.58861 0.130564 -7.19137 
1 -1.8956 0.0660275 -8.98254 
1 -0.039891 -3.415 -7.08758 
1 -0.208489 0.0565544 -10.7366 
1 3.6056 -3.61566 -10.8285 
1 1.6519 -1.95977 -10.8209 
1 1.80014 -3.51728 -8.94106 
2 3.48012 -1.81533 -9.06035 
1 3.43105 -3.37606 -7.15908 
1 1.70552 -1.77274 -6.99046 
2 1.68058 -0.0189141 -9.10695 
1 3.64966 -0.0385063 -10.845 
1 3.53015 0.0235815 -7.09161 
1 7.23405 -3.67313 -10.6417 
1 5.35824 -1.82194 -10.7215 
1 7.0554 -1.82905 -8.99827 
1 5.23437 -3.59031 -8.90624 
1 7.0122 -3.46748 -7.10981 
1 5.36091 -1.83421 -7.14657 
2 7.35057 0.156107 -10.7302 
2 5.2205 0.0625806 -8.95217 
1 8.96556 -1.91314 -10.5896 
1 10.8245 -3.64342 -7.10108 
1 8.97407 -3.6971 -8.76162 
2 8.87154 -1.90438 -7.16727 
2 10.6943 -1.78274 -8.89729 
1 12.5346 -1.6891 -6.94121 
2 10.6449 -0.0442209 -7.17869 
1 10.2042 0.0546109 -10.6711 
1 8.89574 0.150969 -8.86705 
1 -5.40214 -12.5353 -3.40375 
1 -1.82829 -14.1856 -5.02744 
1 -3.61156 -12.4944 -5.24766 
2 0.12706 -14.3377 -3.2812 
1 -0.0425938 -12.5328 -5.35035 
2 1.85997 -12.5715 -3.59848 
1 3.50311 -12.4088 -5.4142 
1 5.16009 -12.4402 -3.65172 
1 -10.8672 -8.73795 -5.09896 
1 -8.84064 -10.7953 -5.07561 
2 -9.0314 -8.81987 -3.51702 
1 -7.12915 -10.6774 -3.51746 
1 -5.38336 -10.8337 -5.37035 
1 -7.04171 -8.94721 -5.24769 
1 -5.31277 -8.85061 -3.46267 
1 -1.8486 -12.4764 -3.34186 
2 -1.80982 -10.7149 -5.23081 
1 -3.58878 -10.7788 -3.43233 
1 -3.65691 -8.88521 -5.23305 
2 -1.77149 -8.80675 -3.46569 
1 -0.0490502 -8.8118 -5.25044 
2 0.0233812 -10.7011 -3.4968 
1 1.6738 -10.5819 -5.40369 
1 3.5362 -10.5684 -3.59905 
1 3.63066 -8.86188 -5.4616 
1 1.79374 -8.83409 -3.47689 
2 6.96238 -10.8327 -3.71224 
1 5.23234 -10.7346 -5.5921 
1 6.98271 -8.807 -5.52097 
2 5.28291 -8.79292 -3.65353 
1 8.88204 -10.7891 -5.37716 
2 8.79308 -8.94727 -3.60921 
1 10.6507 -9.09319 -5.30182 
1 -12.6878 -5.52228 -3.41292 
1 -10.8554 -6.98106 -3.43836 
1 -10.866 -5.40389 -5.24159 
2 -8.87078 -7.05535 -5.2067 
1 -8.89631 -5.26473 -3.50889 
1 -7.06825 -6.9514 -3.45967 
1 -7.12437 -5.19259 -5.26474 
1 -5.41803 -7.04656 -5.2625 
1 -5.39677 -5.2362 -3.52692 
1 -1.92766 -7.1163 -5.21531 
1 -3.68609 -7.13398 -3.52091 
1 -3.65867 -5.31746 -5.27539 
1 -1.91386 -5.44384 -3.51358 
2 -0.106473 -5.34577 -5.21592 
1 -0.042265 -7.08025 -3.44845 
2 1.75397 -6.99915 -5.16971 
1 3.73067 -6.94135 -3.60488 
1 3.62338 -5.20766 -5.35455 
1 1.8193 -5.1081 -3.58501 
1 7.12645 -6.97603 -3.54588 
1 5.24883 -6.96667 -5.38445 
1 7.12824 -5.17978 -5.4288 
1 5.40176 -5.2103 -3.70806 
1 10.695 -7.14042 -3.76417 
1 10.8625 -5.37852 -5.3914 
2 8.7226 -7.16898 -5.48952 
2 8.97232 -5.40178 -3.55902 
1 12.6935 -5.21143 -3.5211 
1 -14.1104 -3.69696 -3.27466 
1 -12.6185 -3.75064 -5.40859 
2 -12.5458 -1.73622 -3.61715 
1 -10.6843 -1.79786 -5.25316 
2 -10.874 -3.69355 -3.50781 
1 -9.12324 -3.58546 -5.22408 
2 -8.94245 -1.91589 -3.34649 
1 -10.8714 -0.0136294 -3.40174 
2 -9.04192 0.0976032 -5.36003 
2 -7.10977 -1.86995 -5.3283 
1 -7.05218 -3.54905 -3.53694 
1 -5.42956 -3.58174 -5.26979 
1 -5.17094 -1.67151 -3.33222 
1 -3.73185 -1.77403 -5.32739 
1 -1.94292 -3.41691 -5.31388 
1 -3.67787 -3.45717 -3.45114 
1 -1.8638 -1.73628 -3.53147 
1 -0.101108 -1.64603 -5.32099 
1 -0.159391 -3.48598 -3.53504 
1 1.71655 -3.41997 -5.19173 
1 3.5846 -1.70382 -5.25243 
1 3.56888 -3.51489 -3.5617 
2 1.79626 -1.68104 -3.52516 
1 1.7071 -0.0474935 -5.40305 
1 7.11145 -1.73317 -5.35612 
1 7.09098 -3.47746 -3.75603 
1 5.30219 -3.45892 -5.26492 
1 5.38865 -1.69146 -3.62801 
1 10.7773 -1.75448 -5.2805 
1 10.7323 -3.66747 -3.58137 
1 8.93326 -3.55902 -5.33581 
1 8.88592 -1.61823 -3.71798 
1 12.2075 -1.76877 -3.44181 
2 12.6365 -3.39321 -5.08281 
2 14.2387 -3.02533 -2.84263 
2 14.2067 -0.450233 -3.64179 
2 -7.10041 -12.4574 1.37593 
1 -1.65657 -14.3763 -1.4662 
1 -3.32261 -14.2189 0.410011 
1 -0.990299 -14.4799 1.26052 
1 -3.44332 -12.5761 -1.57134 
1 2.58368 -14.5347 -2.26309 
1 0.753977 -14.5969 -0.46493 
1 3.29678 -14.4859 0.182838 
2 1.60028 -14.1733 1.95745 
1 3.64496 -12.6168 1.69879 
1 5.19967 -14.1028 -1.77736 
1 5.1121 -12.4705 -0.00231836 
1 -10.6883 -10.486 -0.00515515 
1 -10.967 -8.96543 -1.9673 
1 -9.1287 -10.8952 -1.93043 
1 -8.92916 -8.8973 -0.0570087 
2 -10.9921 -9.00861 1.96782 
2 -8.95421 -10.7317 1.74518 
1 -5.24358 -12.4798 -0.0687856 
2 -7.06367 -12.3894 -1.5579 
1 -7.39329 -10.4927 -0.0677671 
2 -5.43684 -10.624 -1.75978 
2 -5.4467 -10.4819 1.55553 
1 -7.23729 -8.88374 -1.71245 
1 -7.31127 -8.82967 1.76246 
1 -5.47058 -8.80753 -0.0207043 
1 -1.66206 -12.3843 0.0774437 
1 -3.32025 -12.1458 1.68017 
1 -3.41497 -10.5807 0.0286925 
1 -1.65219 -10.6099 -1.56909 
1 -1.78939 -10.2837 1.74732 
1 -3.55509 -8.80154 -1.66085 
1 -3.58915 -8.79454 1.75775 
1 -1.6147 -8.74779 -0.120865 
1 0.0274063 -12.2648 1.78273 
1 0.0726266 -10.5132 0.0731955 
2 0.0759495 -12.4852 -1.66818 
2 1.88117 -12.4789 -0.0425728 
1 0.107374 -8.83062 -1.71324 
1 0.133137 -8.70545 1.71874 
1 3.55098 -12.4084 -1.82057 
1 3.66671 -10.5799 0.000231817 
1 1.86603 -10.5815 -1.73012 
1 1.8436 -10.598 1.78168 
1 3.63718 -8.86679 -1.79133 
1 3.51932 -8.73807 1.79427 
1 1.82267 -8.81522 0.0415783 
1 7.07851 -12.2883 1.55195 
2 7.02339 -12.3967 -1.59875 
1 6.87741 -10.5511 -0.0200213 
1 5.19838 -10.6976 -1.83817 
1 5.23346 -10.6316 1.74494 
1 7.1288 -9.06482 -1.86952 
2 7.18784 -8.75579 1.4655 
1 5.19812 -8.82364 -0.0426596 
1 8.96149 -11.9679 -0.127563 
1 8.96679 -10.9661 -2.22786 
1 10.7719 -8.97342 -2.09109 
1 10.8154 -9.04477 1.43438 
2 9.01776 -9.21476 -0.300429 
1 8.97203 -10.6277 1.95687 
1 -12.6791 -5.45282 0.18979 
1 -12.594 -7.01252 -1.5537 
2 -10.7237 -7.33469 -0.0743744 
1 -10.7819 -5.31787 -1.61734 
1 -10.8478 -5.45117 1.81324 
1 -8.98676 -7.16494 -1.73916 
1 -9.02908 -7.25214 1.94056 
1 -9.14079 -5.49436 0.067563 
1 -7.14663 -7.13058 0.0666687 
1 -7.22318 -5.36044 -1.73149 
1 -5.41592 -7.11214 -1.70528 
2 -7.37411 -5.51903 1.69415 
1 -5.34582 -7.15328 1.78713 
1 -5.36425 -5.358 0.0715752 
1 -3.55205 -7.12417 0.0456419 
1 -1.76678 -6.97336 -1.77288 
1 -1.76038 -7.13358 1.73968 
1 -3.67142 -5.38151 -1.71396 
1 -3.6111 -5.44246 1.75091 
2 -1.7624 -5.24917 0.0726506 
1 0.130485 -6.99843 -0.139436 
1 -0.0160066 -5.24622 1.79376 
1 0.0334291 -5.30423 -1.81519 
1 3.5762 -6.99093 -0.13567 
2 1.95234 -7.06924 -1.89909 
1 1.77092 -7.03855 1.75296 
2 3.71364 -5.17275 -1.79801 
1 3.44815 -5.27708 1.78395 
1 1.64588 -5.1494 0.0373373 
1 7.02779 -7.18302 -0.198281 
1 5.36018 -7.10142 -1.82692 
1 7.10871 -5.35036 -1.83034 
1 5.19786 -6.96337 1.75622 
2 7.21458 -5.46962 1.71946 
1 5.29367 -5.28249 -0.0978205 
1 10.6916 -7.38387 -0.307392 
1 10.8411 -5.34457 1.68745 
1 10.7563 -5.4569 -1.84663 
1 8.84009 -7.18034 -1.80459 
1 9.04124 -7.1639 1.57651 
1 8.95435 -5.35654 -0.118346 
1 12.588 -7.17157 1.40028 
1 12.46 -7.23067 -2.07942 
2 12.4945 -5.40731 -0.351369 
1 -14.3512 -3.38892 0.0190125 
2 -14.2739 -1.73459 -1.71792 
1 -14.4775 -1.75401 1.8361 
2 -12.5485 0.021717 1.79187 
1 -12.4962 -3.61025 -1.57034 
1 -12.5342 -1.87748 0.0483779 
1 -12.5843 -3.57906 1.77012 
1 -10.8342 -3.63154 0.107967 
1 -10.7573 -1.78089 -1.70326 
1 -10.7134 -1.73785 1.71783 
1 -9.03821 -3.69258 -1.54465 
2 -9.08786 -3.61465 1.79132 
1 -8.95882 -1.85087 0.0398509 
1 -7.3263 -3.60912 0.0465301 
1 -7.10542 -1.85333 -1.69265 
1 -7.1881 -1.74842 1.8636 
1 -5.44215 -3.60301 -1.60943 
2 -5.44682 -3.56696 1.79964 
2 -5.40711 -1.80621 0.00166205 
1 -3.6412 -3.58639 0.00197685 
1 -3.55317 -1.76983 -1.58997 
2 -1.82578 -3.52255 -1.79637 
2 -3.44711 -1.83612 1.76766 
1 -1.84332 -3.61301 1.84551 
1 -1.79874 -1.70908 -0.0336777 
1 -0.121353 -1.602 -1.7656 
1 -0.0945497 0.11123 0.125732 
1 -0.197327 -1.73802 1.75435 
1 -0.13953 -3.41823 -0.0259892 
2 3.56137 -3.44994 0.100517 
2 1.72376 -3.5468 -1.77249 
1 3.63008 -1.90164 -1.79893 
1 1.78153 -3.46324 1.88159 
1 3.61518 -1.81848 1.90084 
1 1.62009 -1.79173 -0.0714038 
2 3.51436 -0.218389 -0.0671485 
1 1.72296 -0.00813484 -1.72298 
1 7.17818 -3.69844 0.109445 
1 7.09458 -1.68129 -1.87882 
1 7.22317 -1.81569 1.80198 
1 5.43491 -3.51947 -1.82499 
1 5.40365 -3.53195 1.90204 
2 5.51445 -1.80202 0.0638946 
1 10.5394 -3.65664 -0.0626895 
1 10.6661 -1.88285 1.83114 
1 10.4276 -1.66383 -1.83636 
1 8.7927 -3.44438 -1.92037 
1 8.85914 -3.72262 1.85484 
2 8.84152 -1.81608 -0.0033743 
1 12.1339 -3.34085 -1.65949 
1 12.3268 -1.85765 -0.0260395 
2 12.5247 -3.5969 1.73964 
1 12.4222 -0.0638797 1.55644 
2 14.158 -3.44491 -0.305086 
1 14.9201 -1.1666 -1.45627 
1 14.4601 -1.71526 1.45388 
1 14.4157 0.303361 0.153286 
2 -5.20107 -12.5691 3.14891 
2 -3.02234 -14.08 2.90374 
1 -0.364699 -14.1307 3.58367 
1 3.526 -14.0489 3.63274 
1 -10.7888 -10.7098 3.5859 
1 -10.6752 -8.91285 5.49373 
2 -8.90681 -8.92178 3.60886 
2 -8.82467 -10.7662 5.13167 
1 -7.05878 -10.9438 3.55174 
1 -5.34774 -10.7863 5.26905 
1 -7.11925 -9.04555 5.44847 
2 -5.43522 -8.9512 3.52267 
2 -3.46738 -12.4692 5.04163 
2 -0.129276 -12.3586 5.08132 
1 -1.62803 -12.1621 3.30665 
1 -1.84437 -10.5788 5.19564 
1 -3.50391 -10.5903 3.549 
2 -3.55928 -8.89065 5.40146 
1 -1.70155 -8.72542 3.60226 
1 -0.00707043 -8.76531 5.29487 
1 0.0183563 -10.4321 3.49281 
1 3.51698 -12.4661 5.47353 
1 1.8254 -12.439 3.63926 
1 1.6372 -10.5395 5.33784 
2 3.49818 -10.6552 3.6764 
1 3.39599 -8.81384 5.38406 
1 1.77983 -8.74009 3.49818 
1 5.37902 -12.5755 3.45397 
1 6.93293 -10.6259 3.65777 
1 5.36556 -10.7082 5.49549 
2 7.18033 -8.78105 5.43053 
2 5.31429 -8.69367 3.55703 
1 9.23516 -10.3168 5.36131 
2 9.04447 -8.79259 3.45077 
2 10.8869 -8.26606 5.18677 
1 -12.4189 -5.32385 3.724 
1 -10.8674 -7.03527 3.67964 
1 -10.7227 -5.37391 5.50298 
1 -8.89842 -7.23075 5.38876 
1 -9.13345 -5.37162 3.60368 
1 -7.19825 -7.15073 3.72876 
1 -7.1773 -5.3323 5.51835 
1 -5.38656 -7.06204 5.36212 
2 -5.41628 -5.40474 3.48111 
1 -1.90746 -7.02009 5.2846 
1 -3.57091 -7.04839 3.57253 
1 -3.6803 -5.33499 5.30928 
2 -1.8229 -5.35116 3.45369 
1 -0.0116577 -7.07239 3.50626 
2 0.0336236 -5.2948 5.25597 
1 1.68257 -7.05973 5.28526 
1 3.40687 -7.03504 3.58957 
1 3.54208 -5.30853 5.4097 
1 1.79281 -5.22963 3.48628 
1 7.20299 -7.15811 3.63917 
1 5.26191 -7.08121 5.32519 
2 7.09538 -5.28009 5.2968 
2 5.25064 -5.19912 3.59287 
1 10.8327 -7.11936 3.16946 
1 10.786 -5.5975 5.21881 
1 8.9292 -6.97733 5.43497 
1 8.94353 -5.55753 3.49219 
2 12.5389 -5.46076 3.61274 
1 -14.3953 -0.0673062 3.68901 
1 -14.1885 -3.41895 3.73526 
1 -12.5307 -3.56985 5.49337 
1 -12.4296 -1.78514 3.57825 
1 -10.8196 -1.76058 5.44327 
1 -10.8621 -3.47139 3.55045 
1 -9.0663 -3.61688 5.48559 
2 -9.06352 -1.76107 3.69908 
1 -7.21276 -1.68595 5.3329 
2 -7.27156 -3.61315 3.76603 
1 -5.34654 -3.46903 5.46313 
1 -5.48035 -1.69792 3.56907 
2 -3.69275 -1.65341 5.29416 
2 -1.90735 -3.55216 5.23076 
1 -3.70921 -3.44304 3.4634 
1 -1.79995 -1.58578 3.62048 
1 0.00888485 -3.40245 3.53947 
1 0.0272329 -1.69735 5.3469 
1 1.82881 -3.46118 5.29722 
1 3.60411 -1.774 5.40366 
1 3.4865 -3.40135 3.63759 
1 1.68442 -1.74997 3.61194 
1 1.73459 -0.0583536 5.28755 
1 7.1564 -1.85226 5.43863 
1 7.21672 -3.5134 3.57379 
1 5.37343 -3.4007 5.36397 
1 5.37502 -1.81157 3.6073 
2 7.03749 -0.108299 3.55482 
1 5.47378 -0.067986 5.45503 
2 10.8359 -1.86903 5.31902 
1 10.7731 -3.75709 3.52178 
2 9.08081 -3.67803 5.41011 
1 8.84425 -1.87808 3.50018 
2 12.5591 -1.81733 3.42384 
1 12.5513 -3.68502 5.19493 
1 14.3649 -3.60444 3.42722 
1 14.3561 -1.74903 5.24379 
2 14.3277 -0.0320849 3.20545 
1 -1.94807 -12.4659 7.00478 
1 -8.79677 -9.10885 7.17534 
1 -5.03982 -9.108 10.5167 
1 -5.32781 -10.7051 8.77565 
1 -7.077 -11.0092 7.01936 
2 -6.98869 -8.87812 8.92304 
1 -5.31066 -8.95649 7.09486 
2 -1.75645 -8.7671 10.6036 
1 -1.88034 -10.6445 8.84002 
1 -3.63316 -10.8893 7.08724 
1 -3.41458 -8.79936 8.80026 
1 -1.68863 -8.82811 7.187 
1 -0.124758 -10.5681 7.09287 
1 0.0666246 -8.736 8.94688 
1 1.60581 -12.2983 6.96293 
1 1.74779 -10.5537 8.81187 
1 3.48106 -10.6542 7.12263 
1 3.54357 -8.9196 8.8023 
1 1.68043 -8.73841 7.12125 
1 1.73506 -8.81263 10.7323 
1 7.23981 -10.5346 7.14438 
1 5.22603 -8.87213 10.4493 
1 5.38009 -10.5681 8.73689 
1 6.93648 -8.81927 8.7746 
1 5.19001 -8.69496 7.09082 
1 9.15218 -8.76716 7.14101 
1 -10.3136 -5.47105 9.05609 
2 -10.5823 -7.1938 7.20536 
1 -8.79625 -7.23584 9.0023 
1 -8.82618 -5.37215 7.1781 
1 -8.51711 -5.33916 10.7708 
1 -6.79053 -7.08217 10.6623 
1 -7.0787 -5.41877 8.95454 
1 -5.25058 -7.17115 8.85926 
1 -7.08534 -7.22375 7.11069 
1 -5.4252 -5.35404 7.17024 
1 -5.38339 -5.30889 10.8982 
2 -3.75678 -7.16156 10.9019 
1 -1.91764 -5.18921 10.7103 
1 -1.82629 -7.03298 8.99244 
2 -3.65972 -5.27254 9.08289 
1 -3.51248 -7.02743 7.11272 
1 -1.94349 -5.21183 6.9953 
2 -0.0557526 -5.32251 9.0188 
1 -0.0291989 -7.0452 10.7659 
1 -0.0650228 -7.0677 7.19476 
1 3.41856 -6.97605 10.5598 
1 1.8399 -5.17104 10.7117 
1 1.69017 -7.0921 8.87777 
1 3.52344 -5.22376 8.80959 
1 3.50146 -7.09469 7.16944 
2 1.66825 -5.30354 7.11527 
1 7.0419 -7.07308 10.5168 
1 5.35914 -5.37238 10.6741 
1 5.18738 -7.02641 8.98539 
1 7.1214 -5.32653 8.86793 
1 7.09119 -7.08506 7.17562 
2 5.30806 -5.25692 7.10556 
1 8.67654 -5.34405 10.6585 
1 10.4968 -5.05924 9.12574 
1 10.9137 -6.67176 7.30356 
1 8.91874 -7.08174 8.85475 
1 8.9382 -5.37201 7.13401 
2 -12.4814 -1.75365 7.21331 
1 -8.97358 -1.56536 10.738 
1 -10.4755 -3.63319 10.4593 
2 -10.6737 -3.52557 7.27875 
1 -8.74044 -3.60363 8.92296 
2 -8.90239 -1.7862 7.27105 
1 -10.7611 -1.68346 8.98737 
1 -7.34617 -3.35939 10.7227 
1 -5.30579 -1.6531 10.7569 
1 -7.0611 -1.69799 8.98437 
2 -5.49672 -3.60897 9.13076 
1 -7.18976 -3.46775 7.01072 
1 -5.46698 -1.73076 7.26674 
1 -7.16857 -0.00291804 10.7633 
1 -5.42646 0.124826 8.99231 
1 -3.55683 -3.47595 10.8256 
1 -1.8753 -1.664 10.7463 
1 -3.70764 -1.69701 8.94652 
2 -1.84536 -3.37203 8.91733 
1 -3.69641 -3.50477 7.18471 
1 -1.85394 -1.57332 7.13784 
1 -3.57829 0.018146 10.7345 
1 -0.0125995 0.0556493 10.714 
1 -1.69976 0.212762 9.01464 
1 0.0400295 -3.33357 10.7405 
2 0.0316865 -3.43306 7.14761 
1 0.0235516 -1.61502 8.9628 
1 1.80403 -1.70966 7.17527 
2 3.5969 -3.37949 7.13652 
1 1.95569 -1.76471 10.8548 
1 1.84449 -3.4511 8.98551 
1 3.7424 -1.72349 8.94218 
1 3.66522 -3.64998 10.6733 
2 0.0276133 0.129498 7.2115 
1 7.34133 -0.0983634 10.8051 
1 7.08012 -3.54907 10.6093 
1 5.41306 -1.70605 7.19579 
1 7.1158 -3.55224 7.18526 
1 5.36689 -1.60473 10.7933 
1 5.39281 -3.50701 9.01393 
1 7.069 -1.75511 8.99587 
1 7.23511 0.0102557 7.22086 
1 8.90923 -1.77154 7.13786 
1 9.00875 -1.90579 10.8612 
1 11.0683 -3.92806 7.02814 
1 8.77195 -3.51756 8.92828 
2 10.8216 -2.1145 8.59882 
2 12.6685 -1.74201 7.01162 
1 -0.0687386 -8.89816 12.4741 
1 -0.125188 -6.56506 14.09 
1 0.0112283 -5.19355 12.2602 
1 -1.79698 -6.9899 12.5287 
1 -3.41274 -5.13084 12.7838 
1 3.55666 -5.38296 12.3972 
1 2.0244 -5.23114 14.1315 
2 1.72373 -6.98681 12.4531 
1 -5.44643 -0.135133 12.5924 
1 -5.5035 -3.53084 12.4183 
1 -7.19483 -1.68663 12.4423 
2 0.118386 -3.69517 14.1438 
1 -1.71417 -3.39001 12.438 
1 -1.75042 -1.77094 14.2752 
1 -3.42176 -1.81843 12.6318 
1 -3.50307 -0.0169309 14.3449 
1 -1.74893 0.101176 12.5634 
1 3.58268 -0.0247217 14.2507 
1 0.0166453 -1.63127 12.5067 
1 1.62577 -1.75876 14.3211 
1 1.83372 -3.5625 12.4569 
1 3.70779 -1.82445 12.7024 
1 1.8213 0.00235786 12.6005 
1 0.107987 0.232035 14.2925 
1 5.43385 -0.0117975 12.5764 
1 7.17364 -1.98965 12.4195 
2 5.39691 -3.48948 12.429 
1 -7.32295 1.74211 -12.4069 
1 -5.64963 3.6149 -12.5329 
2 -1.72788 1.96374 -14.4053 
2 -3.79662 1.91182 -12.5737 
1 -1.87295 3.6092 -12.6416 
1 -3.67842 0.216585 -14.5232 
2 -1.94859 0.142594 -12.4883 
2 0.0260024 1.80077 -12.5646 
1 0.049241 3.60393 -14.3822 
1 3.585 3.76105 -14.2626 
1 3.5621 1.88316 -12.4997 
2 1.8118 3.60223 -12.5385 
1 1.91844 1.88721 -14.4036 
1 5.00261 1.69016 -14.3257 
1 6.89339 1.76381 -12.7737 
1 5.43751 3.69084 -12.6019 
2 5.35661 -0.127753 -12.6478 
1 -1.6855 7.18501 -12.5429 
1 -3.50515 5.24604 -12.4884 
1 -0.121604 5.42079 -12.6339 
1 1.72633 7.03245 -12.4514 
1 3.58453 5.30617 -12.4184 
1 -12.6766 1.7743 -7.1097 
1 -10.9579 1.92447 -8.89864 
1 -9.07946 1.90355 -10.6384 
2 -9.00355 3.73171 -8.86567 
2 -9.14902 1.89472 -7.2506 
1 -10.7556 3.77286 -6.96157 
1 -10.9881 0.0459375 -7.15395 
1 -10.6526 0.0224228 -10.4947 
1 -7.19079 3.70789 -10.5779 
2 -5.46147 1.78443 -10.79 
2 -7.1703 1.88726 -8.93492 
1 -5.47058 3.6844 -8.98208 
1 -7.13646 3.67536 -7.04135 
2 -5.25401 1.90929 -6.96024 
1 -3.62631 3.61358 -10.7776 
1 -2.00149 1.85359 -10.6763 
1 -3.722 1.82735 -8.95303 
2 -1.79377 3.46901 -9.0422 
2 -3.54733 3.63909 -7.16557 
1 -1.84728 1.68742 -7.12476 
1 -0.218152 3.53698 -7.08717 
1 -0.0534108 1.81407 -9.03165 
1 -0.140202 0.0922747 -7.11706 
1 -3.71763 -0.0386306 -10.6383 
1 -0.0319286 3.53859 -10.7661 
1 3.56392 3.53823 -10.8544 
1 1.76442 1.82606 -10.6904 
1 3.49037 1.79318 -9.02455 
2 1.79745 3.67626 -8.93125 
1 3.5007 3.56648 -7.10429 
2 1.70758 1.76525 -7.18004 
2 7.05191 3.62187 -10.7654 
1 5.34096 1.78068 -10.8345 
1 6.9863 1.88239 -8.92252 
1 5.21467 3.50621 -8.90362 
1 6.96236 3.46693 -7.23137 
1 5.25895 1.77033 -7.18698 
2 7.14302 0.056536 -7.08989 
1 8.88953 1.96476 -10.9342 
2 10.6049 1.7576 -8.93342 
1 8.8323 3.51492 -8.87435 
1 8.81617 1.78482 -7.04895 
1 10.7388 3.57702 -7.03604 
2 12.3735 1.87733 -7.17861 
1 -10.7239 5.61154 -8.49458 
1 -10.8606 7.06498 -6.74902 
1 -8.98802 7.35944 -8.82503 
1 -8.90529 5.4805 -6.95739 
1 -8.94239 5.34622 -10.5703 
2 -5.50733 5.48626 -10.7427 
1 -7.1799 7.25366 -10.6329 
1 -7.30214 5.53064 -8.84101 
1 -5.34369 7.21991 -8.89727 
2 -7.08509 7.34164 -7.13855 
1 -5.4089 5.43894 -7.17546 
2 -3.55195 7.32595 -10.9033 
1 -1.83269 5.39588 -10.7225 
1 -1.73476 7.25926 -9.01875 
2 -3.51295 5.48501 -8.99971 
1 -3.52077 7.14373 -7.13501 
1 -1.77616 5.40235 -7.11909 
1 -0.162362 7.29485 -7.22591 
2 -0.0452785 5.32942 -8.93982 
1 -0.0253678 7.19287 -10.7651 
1 3.5252 7.06042 -10.7421 
1 1.77835 5.34382 -10.7873 
2 1.70527 7.20812 -9.00534 
1 3.53578 5.3964 -8.97097 
1 3.48192 7.05771 -7.26806 
1 1.67802 5.4423 -7.13449 
1 7.13321 7.10801 -10.75 
1 5.35879 5.37995 -10.7378 
1 7.01106 5.34541 -8.97372 
1 5.36793 7.0856 -8.89554 
1 7.18253 6.99907 -7.16541 
1 5.26189 5.34489 -7.23804 
1 8.89989 5.16679 -10.6862 
1 10.625 4.98237 -8.96484 
1 9.01732 6.8731 -9.06513 
1 8.85697 5.19642 -7.10564 
2 10.3994 6.84768 -7.16613 
1 -9.03043 8.91965 -6.96945 
1 -5.37636 8.82179 -10.6899 
1 -5.12926 10.49 -8.67951 
1 -7.12053 9.04951 -8.97596 
1 -5.17436 8.87558 -7.08957 
1 -6.98542 10.4678 -7.02849 
2 -1.73003 9.10349 -10.8602 
2 -2.15389 10.6407 -8.95123 
1 -3.59025 10.727 -7.00464 
1 -3.55858 8.79559 -8.88809 
1 -1.84032 8.89816 -7.14157 
1 -0.139702 10.688 -7.23368 
1 -0.137587 12.013 -9.1687 
1 -0.157827 9.15031 -9.02269 
1 1.73666 9.00213 -10.6947 
1 1.8109 10.6743 -9.16483 
1 3.43041 10.8976 -7.30819 
1 3.57252 8.95613 -8.81008 
1 1.60685 9.17185 -7.28251 
1 5.11761 8.74482 -10.6419 
1 5.46283 10.4273 -8.88294 
1 7.18965 10.6823 -7.18138 
1 7.07333 8.68585 -8.95104 
1 5.25655 8.77107 -7.19069 
1 8.95558 8.78149 -7.09385 
1 -1.67626 12.4405 -7.17466 
2 1.61682 12.54 -7.34504 
2 -14.1174 3.41047 -3.61462 
2 -12.5942 3.74736 -5.39276 
1 -14.477 -0.071818 -3.30143 
1 -12.7086 0.000132955 -5.39738 
1 -12.5932 1.50471 -3.48645 
2 -10.8514 1.83633 -5.22999 
1 -11.0693 3.62158 -3.40316 
1 -8.85846 3.64571 -5.4165 
2 -9.04846 1.88218 -3.46624 
1 -7.1735 1.78381 -5.42014 
2 -7.1798 3.65256 -3.60108 
1 -5.23822 3.64169 -5.37249 
1 -5.33861 1.8953 -3.4604 
1 -5.38676 0.0040148 -5.35804 
2 -7.17035 0.121708 -3.48198 
1 -3.51573 1.95619 -5.21983 
1 -1.71718 3.57771 -5.30008 
1 -3.61723 3.71708 -3.56788 
1 -1.84438 1.75096 -3.49244 
1 -0.127609 3.58044 -3.56488 
1 -1.95667 0.0163317 -5.41825 
1 -0.182459 1.67782 -5.31724 
1 -3.684 0.0575012 -3.50641 
1 -0.164593 -0.00394359 -3.57686 
1 3.55154 1.69787 -5.44167 
2 1.65188 3.64439 -5.46055 
1 3.58662 3.62155 -3.67137 
2 1.71892 1.75474 -3.60107 
1 3.59551 0.0431406 -3.47938 
1 6.96055 1.84845 -5.37252 
1 6.95075 3.60752 -3.63671 
1 5.27275 3.67061 -5.53287 
1 5.25153 1.81628 -3.71966 
1 7.03522 0.185008 -3.60448 
1 5.38389 0.0382855 -5.45659 
1 10.6516 1.68492 -5.40971 
1 10.7175 3.52392 -3.72993 
2 8.82681 3.54902 -5.42591 
1 8.73043 1.8486 -3.64207 
1 10.6427 0.115154 -3.58943 
1 8.84467 0.0566409 -5.26852 
1 12.405 1.73751 -3.62482 
1 12.5183 3.45397 -5.41635 
2 12.54 0.0550969 -5.32404 
1 14.1681 3.29974 -3.61719 
1 -12.6393 5.46946 -3.46325 
1 -10.6566 7.2977 -3.46744 
1 -10.7168 5.27164 -5.10974 
2 -8.88342 7.11771 -5.15861 
1 -8.85772 5.36623 -3.48935 
1 -7.22089 7.15423 -3.48014 
1 -7.08615 5.39967 -5.37611 
1 -5.3324 7.13012 -5.24084 
1 -5.41986 5.40483 -3.41803 
1 -1.7539 7.17534 -5.3611 
1 -3.53557 7.20566 -3.5092 
1 -3.58621 5.49951 -5.32544 
1 -1.84422 5.46331 -3.53479 
1 -0.130637 5.43891 -5.39874 
2 0.0295614 7.21862 -3.56394 
1 1.70504 7.26203 -5.51419 
2 3.32336 7.18872 -3.66655 
1 3.47747 5.33119 -5.45176 
1 1.70845 5.29963 -3.6182 
1 7.15838 7.13566 -3.50838 
1 7.10104 5.32752 -5.34119 
2 5.25931 7.10051 -5.48952 
1 5.26989 5.38488 -3.69428 
1 10.717 7.09759 -3.57676 
1 10.7807 5.33088 -5.29708 
1 8.93922 7.13101 -5.29886 
1 8.86289 5.33264 -3.55005 
2 12.4047 5.27076 -3.52233 
1 -10.7929 9.0364 -5.21189 
1 -8.79322 10.559 -5.26924 
1 -8.79407 8.87977 -3.48237 
1 -10.5173 10.6044 -3.36707 
1 -7.09641 10.6972 -3.35308 
1 -5.33981 10.6563 -5.30961 
1 -7.01631 8.87715 -5.23511 
1 -5.26276 9.07859 -3.43334 
1 -5.33213 12.51 -3.53582 
1 -1.7685 10.7684 -5.29579 
1 -3.55067 10.7814 -3.39075 
2 -3.45453 8.9909 -5.23127 
1 -1.80528 9.07329 -3.47457 
1 -1.713 12.5207 -3.56017 
1 -0.125986 8.99959 -5.46787 
1 -0.0722638 10.7882 -3.52718 
1 -3.5003 12.5274 -5.19729 
2 1.65347 10.7568 -5.40735 
1 3.39386 10.7791 -3.67174 
1 3.37421 9.05406 -5.72911 
1 1.70917 9.04332 -3.59735 
1 1.67937 12.5224 -3.4836 
1 3.46483 12.5234 -5.41663 
1 7.16872 10.6549 -3.61864 
2 5.15685 10.7402 -5.55542 
1 7.11557 8.86002 -5.4832 
2 5.27424 8.92926 -3.66509 
1 10.572 8.88338 -5.21851 
1 8.85815 10.5459 -5.3956 
1 8.87704 8.92064 -3.63574 
1 -0.210161 12.6403 -5.40685 
1 -3.28441 14.4472 -3.32672 
1 -0.0492665 14.3314 -3.61403 
2 1.7294 14.0831 -5.3246 
1 3.5089 14.2644 -3.45518 
1 5.34603 12.4411 -3.58611 
1 -14.3732 3.59214 -0.128073 
1 -14.4016 1.76073 -1.74185 
1 -14.2311 1.67083 1.86866 
1 -12.6325 3.62127 -1.70328 
1 -12.4907 1.91169 0.0911906 
1 -14.2037 0.00826086 0.0537308 
1 -12.5193 -0.0774083 -1.67407 
2 -12.5884 3.69872 1.7154 
2 -10.8587 3.67214 -0.0541373 
1 -10.9232 1.83095 -1.7428 
1 -10.612 1.78659 1.73197 
1 -8.97151 3.7338 -1.69844 
1 -9.08401 3.69517 1.89823 
1 -9.06515 1.93059 -0.0310671 
1 -8.97193 0.0755331 -1.68029 
1 -10.715 0.092945 0.0414969 
2 -8.88527 -0.0214727 1.76264 
2 -5.52518 0.143467 1.71714 
1 -7.11478 3.54537 0.00740634 
1 -7.20146 1.91199 -1.76697 
1 -7.35539 1.94779 1.7547 
1 -5.38701 3.62844 -1.75018 
1 -5.43863 3.6253 1.82608 
1 -5.38555 1.85741 -0.0447671 
1 -5.45141 0.0359186 -1.75974 
1 -7.2481 0.0291155 -0.0904019 
2 -3.67637 3.64743 -0.000464203 
1 -3.53418 1.87808 -1.76842 
2 -1.68225 3.67443 -1.69625 
1 -3.59209 1.82238 1.75539 
1 -1.89241 3.7393 1.90034 
1 -1.86845 1.89133 0.125901 
1 -0.101404 1.72436 -1.65266 
1 -3.49688 0.149718 -0.053588 
1 -1.7693 0.0183633 1.86561 
1 -0.144239 1.73945 1.77738 
1 -1.82833 0.0696433 -1.7976 
1 -0.0271814 3.66083 0.283332 
2 3.68948 3.58605 0.056282 
1 3.6037 1.87003 -1.86779 
2 1.60559 3.47432 -1.7113 
1 3.5546 1.85478 1.98065 
1 1.79683 3.70117 1.78435 
2 1.81248 1.73812 0.219373 
2 1.71346 -0.199608 1.86494 
1 5.20532 -0.0830956 -1.80912 
1 7.02268 3.5931 -0.0488157 
1 6.94052 1.81028 -1.86364 
1 7.085 1.81804 1.82603 
1 5.29147 3.64071 -1.87489 
1 5.36158 3.50654 1.90915 
2 5.34209 1.72278 0.0235052 
1 7.10211 0.0619411 -0.0514303 
1 5.23138 0.0108117 1.81264 
1 10.6666 3.53868 0.0358037 
1 10.6859 1.7307 1.74986 
2 10.6745 1.82885 -1.80074 
1 8.88013 3.47967 -1.80724 
1 8.82669 3.36734 1.73055 
1 8.85572 1.88854 -0.182295 
1 8.81119 0.160736 -1.90179 
1 12.4689 3.55553 -1.68944 
2 9.03505 0.0104796 1.76978 
1 10.6174 0.104047 0.0382949 
1 12.4949 1.79971 0.0205296 
2 12.4967 -0.155106 -1.63705 
1 12.4757 3.60275 1.72777 
1 14.2485 3.56251 -0.0521282 
2 14.2467 1.67837 -1.90871 
1 14.4138 2.06013 1.72937 
1 -12.721 5.41372 -0.0525608 
1 -12.4438 7.13745 -1.77607 
1 -12.539 7.09312 1.81405 
1 -10.7909 6.9617 0.0910198 
1 -10.623 5.47376 -1.84184 
1 -10.8095 5.41394 1.85761 
1 -8.85945 7.0416 -1.65144 
2 -8.92074 7.01904 1.76311 
1 -8.94889 5.28304 0.0334475 
1 -7.10254 7.1604 0.0485197 
1 -7.24851 5.26127 -1.66879 
2 -5.42825 7.17089 -1.7892 
1 -7.22332 5.24076 1.84383 
1 -5.44611 6.97453 1.87086 
1 -5.41144 5.38404 0.0430514 
1 -3.51068 7.05882 0.177783 
1 -1.78256 7.16357 -1.75838 
1 -1.86321 7.12872 1.90318 
1 -3.50453 5.42493 -1.797 
1 -3.62881 5.30861 1.94114 
2 -1.69061 5.48158 0.0716177 
1 -0.0392571 5.45716 1.87375 
1 0.00267155 7.15536 0.0500281 
1 0.030806 5.39663 -1.75327 
1 3.43681 7.14076 0.00289114 
1 1.79554 7.1752 -1.68756 
2 1.74052 7.12978 1.82323 
1 3.56625 5.33003 -1.88293 
2 3.55448 5.42573 1.89007 
1 1.71238 5.35362 0.0259656 
1 7.17274 6.97551 -0.0758148 
1 7.14058 5.22508 -1.89898 
2 5.23266 7.05058 -1.88071 
1 7.09519 5.28426 1.80425 
1 5.32046 7.02685 1.80989 
1 5.35897 5.30973 -0.0168833 
1 10.6495 6.96864 -0.169249 
1 10.6639 5.26041 1.719 
1 10.6435 5.17197 -1.87903 
1 8.8712 7.07688 -1.91086 
2 8.96899 7.20316 1.7051 
1 8.86497 5.32966 0.0158534 
2 11.9233 7.21022 1.90931 
1 12.3311 7.01084 -1.85329 
1 12.3691 5.27217 0.0381135 
2 -8.79671 10.6098 -1.67008 
1 -8.93736 10.8008 1.7829 
2 -10.5032 8.86123 -1.60965 
1 -10.8533 8.90718 1.59192 
1 -8.90458 8.95381 0.169052 
1 -7.01118 10.6774 0.00165169 
1 -5.19011 10.7575 1.81221 
1 -5.33234 10.7083 -1.71994 
1 -7.15431 8.94569 -1.63321 
1 -7.00433 9.02308 1.74732 
1 -5.32781 8.87018 0.0984033 
1 -3.51261 10.829 -0.00706079 
2 -1.8583 10.7115 1.84902 
1 -1.76656 10.8292 -1.70144 
1 -3.49463 8.99185 -1.63185 
2 -3.60513 9.02063 1.95349 
1 -1.88115 8.86475 0.18534 
1 -0.000373393 10.7004 -0.00682026 
1 -0.119316 8.87822 1.79386 
1 0.046201 12.4123 1.78273 
2 0.0629116 8.87313 -1.72419 
1 3.61036 10.6796 0.200247 
1 1.84773 10.7263 1.80982 
1 1.76849 10.8038 -1.81113 
1 3.48549 9.02556 -1.64983 
1 3.64633 8.79043 1.81117 
1 1.83273 9.03241 0.0681553 
2 1.82206 12.4169 0.130659 
1 3.72031 12.4037 1.89131 
1 7.11131 10.5211 0.0389112 
1 5.35422 10.5018 1.86924 
2 5.43523 10.6517 -1.7413 
1 7.18325 8.807 -1.7933 
1 7.05734 8.76485 1.77768 
2 5.33988 8.78695 -0.00498723 
2 6.96193 12.3052 1.88221 
1 5.33501 12.39 0.0412203 
1 7.15794 12.4564 -1.59467 
1 10.6237 8.88644 -1.78301 
2 10.7875 9.13509 0.73044 
2 8.81246 10.5087 1.80171 