ITEM: TIMESTEP
1660000
ITEM: NUMBER OF ATOMS
1289
ITEM: BOX BOUNDS pp pp pp
-100 100
-100 100
-100 100
ITEM: ATOMS type x y z 
1 -1.89125 -7.14324 -12.3282 
1 -3.67525 -5.35189 -12.6119 
1 -0.00750245 -5.54236 -12.3437 
1 1.75868 -7.33078 -12.2568 
1 3.41621 -5.41783 -12.3919 
1 -7.34578 -1.60365 -12.1889 
2 -5.50478 -3.43688 -12.0886 
1 7.02988 -1.80804 12.4082 
2 -1.8314 -2.10929 -14.3621 
2 -3.61047 -1.88682 -12.447 
1 -1.89663 -3.73931 -12.4341 
1 -0.143496 -1.91192 -12.4886 
1 0.00179338 -3.74257 -14.2226 
1 -3.82689 -0.192322 -14.3847 
2 -1.92326 -0.150038 -12.4545 
2 5.19315 -3.40953 12.3606 
2 3.4124 -3.22151 -14.0595 
1 1.63635 -3.69468 -12.5465 
1 3.52913 -1.67665 -12.3534 
1 1.48956 -1.83762 -14.4503 
2 3.46744 -0.276591 -14.4323 
2 1.65671 -0.0794751 -12.4967 
1 5.41527 -1.85159 -14.2579 
2 7.04876 -1.75398 -12.4272 
2 5.3632 -3.59879 -12.4823 
2 5.22629 0.0133662 -12.572 
1 -8.92953 -8.88248 -6.94127 
2 -5.33949 -10.5397 -8.7909 
1 -5.5662 -8.86041 -10.5849 
1 -7.29804 -8.9513 -8.67728 
1 -5.47839 -8.97935 -6.96139 
1 -7.11564 -10.6404 -6.95651 
1 -1.95741 -12.5218 -7.16346 
1 -1.95493 -10.665 -8.82355 
1 -1.87484 -8.98611 -10.6861 
1 -3.60838 -10.7084 -7.06785 
2 -3.62138 -8.80285 -8.74629 
1 -1.92207 -9.00676 -6.98256 
1 -0.187738 -8.98831 -8.96953 
1 -0.139651 -10.6858 -10.5403 
2 -0.108243 -10.7673 -7.07878 
1 1.68937 -12.5932 -6.8889 
1 1.70245 -9.06477 -10.681 
2 1.71451 -10.8557 -8.81412 
1 3.45016 -10.8263 -7.11314 
2 3.52124 -8.94695 -8.76363 
1 1.65315 -8.98413 -7.19242 
1 5.41249 -10.6622 -8.60754 
1 7.29797 -8.82816 -8.79603 
1 5.44444 -8.82911 -7.12601 
1 7.28174 -10.5712 -7.05588 
1 5.41092 -8.86221 -10.33 
1 9.08038 -8.93517 -6.95939 
1 -10.692 -5.09747 -8.74227 
1 -8.97561 -5.13093 -10.5096 
1 -8.95532 -7.07348 -9.07092 
2 -8.87693 -5.30508 -6.97274 
2 -10.5759 -7.10616 -6.85563 
1 -7.25179 -6.95995 -10.6082 
1 -5.53322 -5.35378 -10.6386 
1 -7.25947 -5.29364 -8.86049 
1 -5.32867 -6.99952 -8.86941 
2 -7.02941 -7.01369 -7.05303 
1 -5.33594 -5.18334 -7.09677 
2 -3.7059 -7.17815 -10.749 
1 -1.966 -5.43506 -10.6929 
1 -1.93578 -7.10117 -8.92079 
1 -3.66541 -5.32301 -9.01422 
1 -3.67363 -7.07592 -7.04586 
2 -1.94137 -5.22604 -7.14349 
1 -0.186778 -7.29879 -10.7317 
2 -0.154988 -7.28812 -7.17024 
2 0.00249125 -5.34096 -9.06054 
2 3.5902 -7.09178 -10.4641 
1 1.82331 -5.22093 -10.6369 
1 1.61486 -7.25979 -9.07134 
1 3.59569 -5.19076 -9.05964 
1 3.66223 -7.04522 -7.19218 
2 1.88837 -5.4586 -7.22611 
1 7.07053 -6.89296 -10.505 
1 5.30424 -5.28565 -10.7529 
1 5.49662 -6.91214 -8.7028 
1 7.13985 -5.18613 -8.8244 
1 7.2179 -6.95121 -7.06226 
1 5.20717 -5.19361 -7.07612 
1 9.03578 -5.21557 -10.64 
1 10.8348 -5.14476 -8.78815 
1 10.8861 -7.07466 -7.12017 
2 8.976 -6.98097 -8.74285 
1 9.06298 -5.1406 -6.89689 
1 -12.4958 -1.84459 -6.63505 
1 -11.0653 -1.90235 -8.56988 
1 -9.18439 -1.61094 -10.3014 
1 -10.8323 -3.64645 -6.85842 
1 -9.07984 -3.465 -8.71443 
1 -9.09016 -1.92227 -6.98819 
1 -9.09695 0.076184 -8.55546 
1 5.3031 -0.14814 12.5638 
1 -7.2685 -3.45765 -10.534 
1 -5.30108 -1.7777 -10.5099 
1 -7.17926 -1.70314 -8.78077 
1 -5.46102 -3.66479 -8.96683 
1 -7.07396 -3.5687 -7.08701 
1 -5.30039 -1.82224 -6.95391 
1 -3.59925 -3.63342 -10.5992 
1 -1.81306 -1.91241 -10.7323 
1 -3.54628 -1.7628 -8.99034 
2 -1.86547 -3.49084 -8.83194 
1 -3.68294 -3.49913 -7.06818 
1 -1.8966 -1.83393 -7.08135 
1 -0.185966 -3.65268 -10.7751 
1 -0.0976368 -3.60269 -7.16966 
1 3.27957 -0.222127 14.1932 
1 -0.0563249 -1.79302 -8.9916 
1 3.49029 -3.47462 -10.8413 
1 1.55458 -1.89882 -10.7703 
1 1.67959 -3.39969 -8.92195 
2 3.5651 -1.87444 -8.95389 
1 3.37938 -3.53514 -7.17783 
1 1.62093 -1.75559 -7.10921 
1 -0.0890954 -0.0829054 -7.17435 
1 7.23903 -3.57266 -10.7449 
1 5.32785 -1.72251 -10.6572 
1 7.17041 -1.75635 -9.11185 
1 5.39564 -3.54575 -9.04462 
1 7.18009 -3.58527 -7.22225 
1 5.28829 -1.97112 -7.20906 
1 9.03648 -1.77402 -10.7665 
1 10.8705 -3.48491 -7.02647 
1 9.04145 -3.62656 -8.91485 
2 9.04886 -1.83881 -7.22166 
2 10.738 -1.82969 -9.09203 
1 12.5855 -1.75688 -7.43637 
1 1.61737 -2.315 14.3349 
1 -5.5094 -12.48 -3.40698 
1 -1.7647 -14.0839 -5.15803 
1 -3.68373 -12.6009 -5.18485 
1 -1.80483 -12.561 -3.24538 
1 -0.0503293 -12.5713 -5.38582 
2 0.0274231 -14.2898 -3.45148 
1 -10.751 -8.86269 -5.11429 
1 -8.88569 -10.7099 -5.08012 
2 -8.85902 -8.96831 -3.41107 
1 -7.16259 -10.6686 -3.51442 
1 -5.36309 -10.6721 -5.13152 
1 -7.06888 -8.92461 -5.20408 
1 -5.3469 -8.89015 -3.50414 
2 -1.87368 -10.8457 -5.24423 
1 -3.48073 -10.7731 -3.35016 
1 -3.61299 -8.86533 -5.3599 
2 -1.83707 -8.8241 -3.4858 
1 -0.0277583 -8.83019 -5.23853 
2 1.91952 -12.691 -3.67967 
1 3.63977 -12.46 -5.39268 
2 0.0419397 -10.6926 -3.55739 
1 1.80042 -10.6131 -5.3435 
1 3.54722 -10.7646 -3.59376 
1 3.60958 -9.03575 -5.6035 
1 1.68925 -8.8055 -3.39231 
1 5.34485 -12.5393 -3.62554 
2 7.22995 -10.7107 -3.61839 
1 5.48569 -10.7519 -5.47577 
1 7.12562 -8.78066 -5.30768 
2 5.30883 -8.97142 -3.64917 
1 9.07928 -10.5508 -5.29373 
2 8.99122 -8.67437 -3.51121 
1 10.9154 -8.83113 -5.33051 
1 -12.8063 -5.44533 -3.25852 
1 -10.9509 -7.1544 -3.44778 
1 -10.8669 -5.42299 -5.18201 
2 -8.80859 -7.08745 -5.02313 
1 -8.99328 -5.3317 -3.42446 
1 -6.98586 -7.04544 -3.43922 
1 -7.05151 -5.09228 -5.17217 
1 -5.3732 -7.03356 -5.26152 
1 -5.38105 -5.2323 -3.4115 
1 -1.90096 -7.20587 -5.38552 
1 -3.63328 -7.03495 -3.53027 
1 -3.69065 -5.38515 -5.25412 
1 -1.80017 -5.33649 -3.48782 
2 -0.130422 -5.23055 -5.39455 
1 -0.153442 -7.01391 -3.61275 
2 1.83815 -7.13759 -5.37987 
1 3.60866 -7.24009 -3.62202 
1 3.57078 -5.26326 -5.29239 
1 1.72002 -5.22576 -3.61643 
1 7.06387 -6.99812 -3.59338 
1 5.25772 -7.05222 -5.33223 
1 6.98832 -5.25353 -5.38133 
1 5.2547 -5.27328 -3.64231 
1 10.9034 -7.10152 -3.44247 
1 10.9199 -5.32541 -5.21039 
2 9.01784 -7.00892 -5.41739 
2 8.85381 -5.21694 -3.5908 
1 12.583 -5.23441 -3.2161 
1 -14.4136 -3.44428 -3.39632 
1 -12.6495 -3.67847 -5.13562 
2 -12.7775 -1.64857 -3.63729 
1 -10.7068 -1.82504 -5.15514 
2 -10.8068 -3.6246 -3.41965 
1 -9.08371 -3.72829 -5.17132 
2 -9.10209 -1.81474 -3.32056 
2 -9.13763 0.0307751 -5.30941 
2 -7.36664 -1.87003 -5.32018 
1 -7.11796 -3.51817 -3.37734 
1 -5.40012 -3.5155 -5.12198 
1 -5.39749 -1.80246 -3.49639 
1 1.75884 -3.60578 12.3363 
1 -3.58704 -1.7588 -5.13074 
1 -1.98974 -3.56647 -5.2879 
1 -3.56297 -3.5018 -3.55949 
1 -1.73476 -1.71745 -3.51123 
1 -0.0278529 -3.49124 -3.55821 
1 -0.156553 -1.84641 -5.45892 
1 3.38335 -1.84922 12.3794 
1 -1.83554 -0.04501 -5.37609 
1 1.74821 -3.49461 -5.43219 
1 3.58882 -1.82945 -5.39342 
1 3.44157 -3.52045 -3.66611 
2 1.7327 -1.66902 -3.7459 
1 7.17601 -1.84659 -5.43493 
1 7.04701 -3.43679 -3.56443 
1 5.26221 -3.55959 -5.40201 
1 5.35573 -1.74602 -3.65523 
1 10.8227 -1.6971 -5.47848 
1 10.7094 -3.67113 -3.56443 
1 9.01862 -3.48591 -5.20057 
1 9.01683 -1.74013 -3.68891 
1 11.9911 -1.60927 -3.49807 
2 12.6235 -3.27566 -5.24115 
2 14.0314 -2.86514 -3.06543 
2 14.0827 -0.355476 -3.71303 
1 -5.23662 -12.5858 0.0822171 
1 -1.95643 -14.5017 -1.5984 
1 -3.67668 -14.3484 0.235582 
1 -1.62795 -14.4214 1.45228 
1 -3.52326 -12.5895 -1.66147 
1 0.204551 -14.5053 -0.164861 
1 1.99909 -14.3677 -1.76327 
1 3.77353 -14.3374 0.164607 
2 1.6773 -14.2455 1.79726 
2 1.86032 -12.5738 -0.0806023 
1 5.52218 -13.9646 -1.72133 
1 7.15669 -12.4719 1.78324 
1 -10.8971 -10.4394 0.185206 
1 -10.7748 -8.94884 -1.71299 
1 -9.0151 -10.768 -1.54652 
1 -8.89904 -8.93231 -0.0257596 
2 -10.787 -8.97446 2.10965 
2 -8.9544 -10.7541 1.84274 
2 -7.30911 -12.4349 1.43694 
2 -7.20492 -12.3329 -1.40659 
1 -7.18297 -10.4386 0.0012562 
2 -5.26263 -10.6886 -1.61617 
2 -5.40978 -10.7939 1.68591 
1 -7.20733 -8.8444 -1.73705 
1 -7.13103 -8.72538 1.74102 
1 -5.34434 -8.88182 -0.0455017 
1 -1.69582 -12.447 0.0662342 
1 -3.49659 -12.229 1.55992 
2 0.0154476 -12.6634 -1.69459 
1 -3.41224 -10.6273 -0.0740488 
1 -1.57219 -10.7216 -1.73155 
1 -1.70713 -10.5798 1.71622 
1 -3.61084 -8.72278 -1.70886 
1 -3.59118 -8.99859 1.66823 
1 -1.71735 -8.81111 -0.0110747 
1 0.0679044 -12.4934 1.72532 
1 0.0239243 -8.97133 1.75423 
1 3.59857 -12.5247 1.84106 
1 0.0538922 -10.6969 0.044377 
1 -0.0592725 -8.90958 -1.70585 
1 3.7385 -12.4369 -1.77581 
1 3.56391 -10.6635 0.104247 
1 1.82933 -10.6001 -1.85434 
1 1.87906 -10.8482 1.79838 
1 3.55788 -8.93324 -1.72137 
1 3.49681 -8.95996 1.90423 
1 1.78407 -8.8927 -0.0170555 
2 7.20715 -12.2047 -1.67166 
1 5.23517 -12.5042 0.164442 
1 7.08716 -10.6287 0.18099 
1 5.48404 -10.736 -1.7224 
1 5.33702 -10.6668 1.8575 
1 7.14207 -8.80395 -1.70533 
2 7.21129 -8.93333 1.8109 
1 5.23138 -8.92883 0.0925737 
1 9.01915 -12.0836 0.126774 
1 9.11193 -10.6105 -1.89158 
1 10.8473 -8.75226 -1.73402 
1 10.702 -8.77246 1.62016 
2 9.04819 -8.93054 0.0348363 
1 9.05309 -10.6245 2.01362 
1 -12.7505 -5.37229 -0.0137072 
1 -12.5902 -7.16791 -1.65079 
2 -10.8797 -7.21147 0.0921347 
1 -10.7964 -5.31667 -1.73529 
1 -10.8545 -5.3776 1.73587 
1 -9.04901 -7.1788 -1.76622 
1 -9.10235 -7.15547 1.80704 
1 -8.99576 -5.41469 0.0157031 
1 -7.21636 -7.07743 -0.00536908 
1 -7.14141 -5.2363 -1.7141 
1 -5.37223 -7.0065 -1.75077 
2 -7.26075 -5.28743 1.74746 
1 -5.32342 -7.21977 1.7016 
1 -5.29933 -5.35959 -0.135785 
1 -3.57028 -7.15502 -0.0010264 
1 -1.78833 -7.11002 -1.7824 
1 -1.88038 -7.14123 1.82268 
1 -3.5578 -5.2903 -1.76433 
1 -3.63149 -5.43283 1.68215 
2 -1.80563 -5.37339 -0.0160049 
1 0.0863494 -5.41598 1.83418 
1 0.0203078 -7.20664 0.0939658 
1 0.0689264 -5.24883 -1.72986 
1 3.46855 -7.17168 -0.128266 
2 1.69251 -7.01289 -1.78702 
1 1.90198 -7.18642 1.83843 
2 3.68439 -5.46092 -1.84629 
1 3.56895 -5.38528 1.80476 
1 1.86196 -5.31533 -0.0271541 
1 7.09153 -7.06927 -0.0916055 
1 5.42226 -7.10744 -1.84242 
1 7.05613 -5.38327 -1.82696 
1 5.23429 -7.20716 1.73267 
2 7.1136 -5.44948 1.74034 
1 5.32789 -5.41055 0.0132238 
1 10.6007 -6.92543 -0.0678676 
1 10.7281 -5.17539 1.64911 
1 10.5584 -5.28163 -1.73429 
1 8.87744 -7.06383 -1.79228 
1 9.03066 -6.99764 1.72254 
1 8.79822 -5.22677 -0.0089979 
1 12.4857 -6.98665 1.47074 
1 12.4732 -7.17053 -1.71161 
2 12.6024 -5.23344 -0.243509 
1 -14.2045 -3.49302 0.186586 
2 -14.3938 -1.72995 -1.61906 
1 -14.362 -1.75782 1.86909 
1 -12.6163 -3.61389 -1.6394 
1 -12.5119 -1.66019 -0.0112314 
1 -12.6442 -3.70157 1.90149 
1 -10.8911 -3.5779 -0.071976 
1 -10.8941 -1.73871 -1.72596 
1 -10.8632 -1.78997 1.70713 
1 -8.92695 -3.55339 -1.60547 
2 -9.19985 -3.51343 1.74868 
1 -9.02835 -1.6436 0.054028 
1 -7.13628 -3.53598 -0.00716851 
1 -7.21161 -1.78801 -1.74061 
1 -7.30172 -1.76555 1.73934 
1 -5.30403 -3.52956 -1.77437 
2 -5.26133 -3.50788 1.75843 
2 -5.39889 -1.66449 -0.11164 
1 -3.49448 -3.46916 -0.0525353 
1 -3.56279 -1.62888 -1.74042 
2 -1.79178 -3.57277 -1.79671 
2 -3.44841 -1.7096 1.69765 
1 -1.6548 -3.59973 1.75422 
1 -1.71758 -1.74458 -0.0560322 
1 -0.0621295 -1.75775 1.75795 
1 -0.133294 -1.62212 -1.75657 
1 -0.0130522 0.107132 0.0912544 
1 0.088571 -3.51646 0.0940176 
2 3.50961 -3.65823 0.0682838 
2 1.68066 -3.37238 -1.87632 
1 3.62529 -1.79622 -1.8568 
1 1.7453 -3.54234 1.86905 
1 3.50795 -1.83242 1.92214 
1 1.6559 -1.76421 -0.0205644 
1 7.12439 -3.57395 -0.183821 
1 6.99345 -1.74044 -1.88613 
1 7.08351 -1.95066 1.78213 
1 5.24692 -3.59411 -1.91883 
1 5.35624 -3.56178 1.83121 
2 5.3809 -1.94742 -0.0909861 
1 -3.62565 -0.200907 14.183 
1 10.6082 -3.57069 -0.0449587 
1 10.7484 -1.77274 1.56138 
1 10.4888 -1.69425 -1.77729 
1 8.83739 -3.47102 -1.81341 
1 8.9858 -3.57917 1.70381 
2 8.82887 -1.73355 0.0303674 
1 12.2531 -3.35178 -1.69228 
1 12.5575 -1.49362 0.0222359 
2 12.5931 -3.54936 1.50996 
2 14.3596 -3.32164 -0.317611 
1 14.6942 -1.19556 -1.53145 
1 14.5149 -1.63011 1.71908 
2 -5.45542 -12.543 3.40081 
2 -3.50391 -14.0061 3.07426 
1 -0.397346 -14.1708 3.46534 
1 3.61013 -14.1753 3.39118 
1 3.48565 -12.5432 5.42009 
1 -10.7211 -10.8707 3.67542 
1 -10.7853 -9.04984 5.31224 
2 -8.81516 -8.84783 3.54317 
2 -8.85123 -10.6599 5.35303 
1 -7.24683 -10.8253 3.63935 
1 -5.3643 -10.9291 5.22689 
1 -7.08886 -8.94009 5.36585 
2 -5.45147 -9.06699 3.58203 
2 -3.41954 -12.5864 5.21417 
1 -1.84701 -12.3289 3.40356 
1 -1.69977 -10.6785 5.30316 
1 -3.58732 -10.7184 3.5645 
2 -3.47559 -9.06422 5.46691 
1 -1.80214 -8.8967 3.56257 
2 -0.236969 -12.6144 5.35447 
1 1.68863 -12.645 3.63635 
1 0.022843 -10.7226 3.58047 
1 -0.0835709 -8.90847 5.25996 
1 1.85518 -10.7455 5.34018 
2 3.5414 -10.7568 3.58686 
1 3.5988 -8.92481 5.36553 
1 1.78044 -9.01311 3.59639 
1 5.41749 -12.5083 3.66345 
1 7.26331 -10.8086 3.66844 
1 5.38054 -10.9348 5.43511 
2 7.11914 -8.75693 5.3094 
2 5.31817 -8.85922 3.53965 
1 8.96435 -10.6286 5.31178 
2 9.03462 -8.63771 3.54749 
1 -12.6631 -5.56119 3.52179 
1 -10.6934 -7.03702 3.63183 
1 -10.857 -5.33086 5.24455 
1 -8.98315 -7.1794 5.32091 
1 -8.9779 -5.39577 3.61339 
1 -7.09689 -7.09876 3.63966 
1 -7.13433 -5.43085 5.2959 
1 -5.31731 -7.1698 5.34946 
2 -5.30098 -5.43635 3.49934 
1 -1.89812 -7.18393 5.3785 
1 -3.69556 -7.28632 3.50938 
1 -3.61996 -5.45124 5.485 
2 -1.87029 -5.45922 3.42953 
1 0.031432 -7.21935 3.41893 
2 0.000939207 -5.475 5.33889 
1 1.81211 -7.27613 5.31103 
1 3.56014 -7.26759 3.61639 
1 3.56128 -5.40516 5.36695 
1 1.88553 -5.36342 3.5484 
1 7.06013 -7.04735 3.50613 
1 5.41653 -7.14605 5.36985 
2 7.19637 -5.27244 5.35004 
2 5.26471 -5.30571 3.58282 
2 10.7516 -8.34192 5.45961 
1 10.9897 -7.06937 3.40897 
1 10.8955 -5.40438 5.20881 
1 8.92069 -6.87833 5.35921 
1 9.0666 -5.29491 3.46394 
2 12.683 -5.24249 3.38193 
1 -14.1583 -3.50165 3.64571 
1 -12.6189 -3.61222 5.41692 
1 -12.4952 -1.89349 3.66615 
1 -10.6088 -1.73272 5.38681 
1 -10.772 -3.55792 3.58695 
1 -9.02045 -3.74766 5.36609 
2 -9.02659 -1.71094 3.63916 
1 -7.17402 -1.59294 5.42044 
2 -7.19697 -3.46683 3.549 
1 -5.49373 -3.57091 5.27131 
1 -5.389 -1.68113 3.65025 
1 -0.0563579 0.00673609 3.61072 
2 -3.60887 -1.8016 5.30958 
2 -1.75052 -3.58283 5.32693 
1 -3.51812 -3.63369 3.48601 
1 -1.7088 -1.83696 3.55468 
1 0.157708 -1.8491 5.42661 
1 -0.00165301 -3.60571 3.46072 
1 1.74833 -3.52808 5.2292 
1 3.49999 -1.80761 5.34778 
1 3.46868 -3.49686 3.65123 
1 1.74977 -1.63869 3.5745 
1 -1.87566 -3.62536 12.1871 
1 7.23963 -1.86483 5.17634 
1 7.12934 -3.49915 3.48396 
1 5.28865 -3.4637 5.31633 
1 5.33596 -1.87753 3.62694 
2 10.7617 -1.72441 5.36084 
1 10.7516 -3.52944 3.4923 
2 9.08865 -3.59656 5.25323 
1 8.97012 -1.80781 3.40452 
1 8.83343 -0.0825169 5.36208 
2 12.5214 -1.90916 3.46172 
1 12.7651 -3.50344 5.35904 
1 14.5765 -3.39102 3.38997 
1 14.4078 -1.54932 5.2726 
2 -0.252029 -3.98884 13.8532 
1 -8.90388 -8.97937 7.09582 
1 -5.33897 -8.98987 10.5497 
1 -5.30255 -10.685 8.90172 
1 -6.99987 -10.8087 7.02105 
2 -7.15907 -9.07348 8.73411 
1 -5.41677 -9.06392 7.02667 
1 -1.75928 -12.2972 7.22303 
2 -1.76192 -8.98637 10.7038 
1 -1.79648 -10.6599 9.0037 
1 -3.79331 -11.0249 7.08856 
1 -3.59518 -9.00921 8.67559 
1 -1.65288 -9.07918 7.1049 
1 0.143376 -10.6956 6.98658 
1 0.0733952 -9.01518 8.78638 
1 1.81949 -12.5393 6.9792 
1 1.57726 -10.764 8.69739 
1 3.4444 -10.7494 7.03568 
1 3.49401 -8.99296 8.82797 
1 1.85059 -9.00049 7.02613 
1 1.86306 -8.95948 10.7743 
1 7.16 -10.6187 6.98128 
1 5.1998 -9.01116 10.3983 
1 5.17871 -10.6136 8.69311 
1 7.1447 -9.05403 8.80098 
1 5.3294 -8.97486 6.98449 
1 8.94001 -8.69498 7.15375 
1 -10.7879 -5.57852 8.94093 
2 -10.7732 -7.06631 6.78816 
1 -8.96474 -7.21735 8.85697 
1 -8.89572 -5.42671 7.16831 
1 -8.90366 -5.43515 10.4923 
1 -7.2128 -7.36387 10.7068 
1 -7.26153 -5.36602 8.85423 
1 -5.48685 -7.21518 8.87604 
1 -7.14586 -7.18467 6.94508 
1 -5.43499 -5.3645 6.97714 
1 -5.50447 -5.4353 10.6426 
2 -3.63931 -7.30366 10.6374 
1 -1.87623 -5.4796 10.6122 
1 -1.90028 -7.34788 8.78564 
2 -3.74584 -5.51343 8.82589 
1 -3.64832 -7.2318 7.09732 
1 -1.88041 -5.53819 7.14731 
1 -0.0381295 -7.16148 7.15485 
2 -0.00413664 -5.40573 8.99259 
1 -0.141985 -7.24762 10.5419 
1 3.76145 -7.18013 10.7868 
1 1.90721 -5.15922 10.5875 
1 1.89239 -7.2758 9.01263 
1 3.62554 -5.41447 9.11058 
1 3.64989 -7.1317 7.13131 
2 1.84956 -5.44792 7.06301 
1 7.07504 -6.95889 10.6013 
1 5.36145 -5.26761 10.76 
1 5.33139 -7.18737 8.89563 
1 7.13681 -5.33988 8.76553 
1 7.19738 -7.08718 7.15112 
2 5.30444 -5.33179 7.1647 
1 8.66713 -5.18434 10.6434 
1 10.4761 -4.95958 9.02652 
1 10.7962 -6.62484 7.30562 
1 8.81522 -7.07548 8.95076 
1 8.89839 -5.18493 7.07235 
2 -12.1117 -1.70648 7.22589 
1 -9.13127 -1.632 10.3853 
1 -11.2331 -3.08394 9.39748 
2 -10.8695 -3.78039 7.10248 
1 -8.97583 -3.63806 8.88024 
2 -9.11597 -1.76884 7.20633 
1 -11.0574 -0.656076 9.2057 
1 -7.36178 -3.47227 10.7295 
1 -5.46821 -1.70015 10.541 
1 -7.22894 -1.72461 8.86897 
2 -5.48729 -3.55263 8.9125 
1 -7.17079 -3.49059 7.04506 
1 -5.42931 -1.73049 7.05421 
1 -3.74421 -3.54674 10.5423 
1 -1.78957 -1.76853 10.6787 
1 -3.61702 -1.86216 8.88046 
2 -1.83869 -3.58936 8.95053 
1 -3.5982 -3.59511 7.06616 
1 -1.70452 -1.77779 7.11951 
2 -0.0222171 -3.64988 7.1718 
1 3.60797 -0.11932 7.06899 
1 0.0766672 -3.52851 10.6122 
1 -0.134846 -1.72292 8.9117 
1 1.86173 -1.7422 7.30411 
2 3.44044 -3.54062 7.16337 
1 1.79416 -1.78003 10.54 
1 1.81176 -3.47207 8.95444 
1 3.62922 -1.69657 8.92987 
1 3.53827 -3.51345 10.6703 
1 3.67291 -0.0602018 10.7319 
1 -1.86713 -2.05294 13.9586 
1 5.37674 0.000275877 8.90599 
1 7.01104 -3.46205 10.7636 
1 5.4119 -1.74224 7.01448 
1 7.07194 -3.48106 7.02906 
1 5.36839 -1.65603 10.6965 
1 5.35701 -3.52048 8.95049 
1 7.07478 -1.79913 8.89894 
1 7.08438 -0.0855972 7.06372 
1 7.22281 -0.0709284 10.8056 
1 12.086 -0.194193 9.14599 
2 9.03693 -0.201323 9.03151 
1 10.9967 -3.81483 7.00651 
1 8.66472 -3.51144 8.84427 
1 8.86662 -1.84609 7.05139 
1 9.02311 -1.8524 10.894 
2 10.6049 -2.11679 8.91914 
2 12.5548 -1.79286 7.03626 
1 -0.0406781 -8.75198 12.3691 
1 -0.0946014 -5.39947 11.9681 
1 -0.20718 -6.57377 13.988 
1 -3.64906 -5.31311 12.378 
1 -1.81327 -7.0544 12.414 
1 3.68071 -5.40463 12.5597 
1 1.852 -5.08622 14.1154 
2 1.71876 -6.93403 12.2503 
1 -3.7546 -1.80905 12.3314 
1 -5.40618 -3.53115 12.2156 
1 -7.17956 -1.71976 12.3568 
1 -0.12214 -1.9632 12.4017 
1 -5.37106 -0.0770667 -8.76097 
1 -3.49611 -0.019942 -10.5302 
1 3.44801 -0.0894285 -10.716 
2 1.74456 0.00105077 -9.15407 
1 10.5663 0.152638 -10.7049 
1 -3.67445 -0.0612266 -3.50872 
1 3.65589 -0.00216818 -3.66413 
1 7.1319 -0.0514057 -3.59764 
1 5.40126 -0.0839456 -5.40325 
2 12.3696 0.0296429 -5.39097 
1 -12.5672 0.153569 -1.68991 
1 -14.3834 0.0717925 0.0588806 
1 -5.36738 0.040496 -1.75555 
1 -1.73677 0.0472368 1.85302 
2 1.75578 0.0862285 1.86239 
2 3.52531 -0.12483 -0.00625351 
1 1.7925 -0.050113 -1.87902 
2 12.4349 -0.0441012 -1.77172 
1 -7.22807 0.208337 3.54082 
1 -5.33383 0.048929 5.3228 
1 -1.74039 0.0199968 5.35472 
1 1.8318 -0.0172021 5.37543 
1 3.69296 -0.133444 3.53299 
2 0.028613 -0.0163738 7.20102 
1 0.0139059 -0.0505226 10.6524 
2 10.6841 0.103034 7.16649 
1 -7.22926 1.55703 -12.2589 
1 -5.40666 3.6008 -12.5225 
2 -1.85983 1.83339 -14.3177 
2 -3.77894 1.80302 -12.5189 
1 -1.88356 3.62368 -12.2737 
2 -0.127147 1.81374 -12.4054 
1 -0.12129 3.55343 -14.1711 
1 3.28396 3.46088 -14.3395 
1 3.37955 1.71847 -12.6663 
2 1.7509 3.50273 -12.4113 
1 1.65755 1.70034 -14.4916 
1 5.18223 1.64508 -14.4744 
1 7.09274 1.77212 -12.6579 
1 5.21027 3.57275 -12.6023 
1 -1.95175 7.08454 -12.421 
1 -3.6068 5.25776 -12.53 
1 -0.155079 5.35644 -12.3228 
1 1.73985 6.92101 -12.3945 
1 3.60176 5.24532 -12.4947 
1 -12.6352 2.10403 -7.06199 
1 -10.9048 2.24507 -8.9095 
1 -9.20731 1.61796 -10.4667 
2 -8.98529 3.86176 -8.79323 
2 -9.01863 2.0224 -7.05293 
1 -10.9614 3.92109 -7.02318 
1 -11.124 0.144673 -9.93778 
1 -7.2458 3.46178 -10.671 
2 -5.33731 1.6096 -10.6224 
2 -7.26669 1.72124 -8.77572 
1 -5.52623 3.61513 -8.81052 
1 -7.09079 3.76689 -6.94386 
2 -5.36924 1.72963 -6.97996 
1 0.0214741 5.36729 12.3463 
1 -7.24131 0.0218809 -7.01003 
1 -7.17236 -0.0612051 -10.5208 
1 -3.72827 3.45282 -10.5878 
1 -1.91607 1.75665 -10.7119 
1 -3.554 1.72267 -8.72269 
2 -1.79676 3.51517 -8.86253 
2 -3.63915 3.63635 -7.00478 
1 -1.85246 1.65887 -7.20363 
1 -0.0897378 3.55641 -10.7167 
1 -3.52662 -0.166332 -7.11269 
1 1.72869 5.12626 14.1847 
1 -0.099104 3.65193 -7.07999 
1 -0.177507 1.67303 -9.08924 
1 -1.91409 -0.0621459 -8.93061 
1 3.43467 3.53145 -10.6916 
1 1.67686 1.7841 -10.7539 
1 3.55207 1.75682 -9.07968 
2 1.70894 3.52292 -8.90734 
1 3.57143 3.70157 -7.21548 
2 1.78297 1.75241 -7.28558 
1 3.59278 5.15533 12.6092 
1 1.69964 7.03086 12.56 
1 3.57575 0.00885919 -7.14438 
2 7.06145 3.61162 -10.9599 
1 5.12755 1.88109 -10.7498 
1 7.03445 1.8871 -9.11591 
1 5.27495 3.53528 -8.89366 
1 7.04349 3.56474 -7.22847 
1 5.36973 1.71264 -7.15368 
2 7.16987 0.0672624 -10.8817 
2 7.14075 -0.0141341 -7.15436 
2 5.39832 0.0643214 -9.04881 
1 8.90533 1.91184 -10.9743 
2 10.5759 1.9685 -9.01101 
1 8.71674 3.5253 -8.97827 
1 8.85555 2.01437 -7.05204 
1 10.6899 3.72926 -7.25169 
2 12.3817 1.8874 -7.0967 
1 -3.72226 5.20672 12.5823 
1 8.8224 0.21421 -8.99313 
1 -10.7321 5.74373 -8.5969 
1 -10.6988 7.26051 -6.84316 
1 -9.0144 7.32745 -8.8938 
1 -8.98875 5.43104 -6.86202 
1 -8.74588 5.5335 -10.6197 
2 -5.58781 5.35107 -10.7162 
1 -7.0586 7.25753 -10.5591 
1 -7.22479 5.60168 -8.73293 
1 -5.45552 7.2522 -8.88866 
2 -7.07685 7.2009 -7.01777 
1 -5.33872 5.43196 -6.91709 
2 -3.80685 7.14158 -10.6776 
1 -1.90264 5.43417 -10.6535 
1 -1.75879 7.15904 -8.87313 
2 -3.83734 5.42979 -8.80221 
1 -3.52022 7.28267 -7.04064 
1 -1.91429 5.44737 -7.00395 
1 -0.102952 7.1895 -10.6737 
1 -0.0999964 7.08894 -7.01762 
2 -0.0479735 5.44234 -8.83511 
1 3.61511 7.24695 -10.8297 
1 1.70028 5.43086 -10.6447 
2 1.85637 7.22316 -8.85996 
1 3.5786 5.42655 -8.93511 
1 3.55156 7.33984 -7.02859 
1 1.72885 5.45378 -7.14455 
1 7.08176 7.06983 -10.793 
1 5.23401 5.41816 -10.7224 
1 7.09513 5.36034 -8.95922 
1 5.28218 7.1609 -8.89718 
1 7.13288 7.28665 -7.28707 
1 5.38076 5.37107 -7.05935 
1 8.89923 5.20971 -10.6869 
1 10.5806 5.13466 -9.05638 
1 8.96444 7.10193 -9.23772 
1 8.73849 5.32881 -7.23749 
2 10.5509 6.81776 -7.11828 
1 -8.96029 9.00249 -7.02256 
1 -5.24219 9.00588 -10.5509 
1 -5.16866 10.6819 -8.75751 
1 -7.12709 9.05783 -8.82366 
1 -5.40402 9.02018 -7.09322 
1 -7.04276 10.6862 -7.11528 
2 -1.85087 8.98392 -10.6537 
2 -1.98861 10.5748 -8.90198 
1 -3.52993 10.852 -7.12164 
1 -3.65367 8.81772 -8.75722 
1 -1.75211 8.99798 -7.08921 
1 -0.135961 10.6765 -7.15415 
1 -0.0290557 8.86938 -8.78412 
1 -0.181397 12.4563 -8.87421 
1 -1.71863 12.57 -7.15418 
1 1.67562 8.98761 -10.5664 
1 1.72597 10.7052 -8.93013 
1 3.43068 10.7873 -7.152 
1 3.5162 9.05887 -8.75969 
1 1.67599 8.99198 -7.02422 
2 1.61288 12.4998 -7.20089 
1 5.21584 8.93434 -10.5755 
1 5.27762 10.7798 -8.79748 
1 7.36238 10.6122 -7.35042 
1 7.12328 8.89231 -9.15565 
1 5.45621 8.96619 -7.36725 
1 8.94438 8.95151 -7.41353 
2 -14.1098 3.71992 -3.27414 
1 -14.4681 0.186324 -3.32139 
2 -12.6588 3.8351 -5.27622 
1 -12.6093 1.87874 -3.47747 
1 -13.0128 0.177548 -5.32504 
2 -10.891 1.84168 -5.32365 
1 -10.8255 3.76219 -3.49278 
1 -9.11179 3.58542 -5.13674 
2 -9.05926 1.90006 -3.44566 
1 -10.8709 0.159184 -3.32179 
1 -7.15338 1.81355 -5.36977 
2 -7.08217 3.4538 -3.57895 
1 -5.34267 3.5924 -5.25944 
1 -5.27336 1.75671 -3.59794 
1 -5.46638 -0.128284 -5.3191 
1 -3.52495 1.73729 -5.36533 
1 -1.74267 3.56029 -5.37783 
1 -3.48016 3.50466 -3.65834 
1 -1.78835 1.69672 -3.57441 
1 0.0177075 3.53932 -3.68889 
1 -0.0292989 1.63834 -5.42825 
1 -1.79193 6.96856 12.4801 
1 3.64294 1.8206 -5.4507 
2 1.84132 3.68399 -5.46988 
1 3.63893 3.60273 -3.59208 
2 1.8134 1.73368 -3.59514 
1 1.74484 0.0589475 -5.5987 
1 5.36497 3.46164 12.5762 
1 7.1806 1.9122 -5.35376 
1 7.13704 3.65975 -3.51225 
1 5.37324 3.48847 -5.40306 
1 5.40227 1.78701 -3.56362 
1 7.0023 1.79653 12.4415 
1 1.5375 1.63803 14.2499 
1 10.6045 1.90511 -5.26549 
1 10.5958 3.51433 -3.53731 
2 8.85471 3.66133 -5.31343 
1 8.86339 1.75944 -3.61619 
1 12.4103 1.68515 -3.54842 
1 10.5882 0.0633408 -3.54075 
1 8.96424 0.0850707 -5.3352 
1 12.3411 3.58139 -5.29225 
1 14.0325 3.52359 -3.48725 
1 1.72245 3.41441 12.4967 
1 -12.5183 5.63342 -3.29185 
1 -10.5269 7.43279 -3.56903 
1 -10.7869 5.47853 -5.1567 
2 -8.83357 7.25793 -5.16304 
1 -8.80339 5.44395 -3.49975 
1 -6.94121 7.13197 -3.42183 
1 -7.18693 5.36589 -5.29394 
1 -5.33397 7.21955 -5.20224 
1 -5.35844 5.41211 -3.47804 
1 -1.87755 7.1951 -5.23772 
1 -3.58176 7.10749 -3.49932 
1 -3.6119 5.4233 -5.21748 
1 -1.80085 5.37029 -3.58029 
1 0.0502485 5.48698 -5.31146 
2 -0.0404705 7.18267 -3.49394 
1 1.86419 7.24463 -5.35033 
2 3.42958 7.19079 -3.5266 
1 3.56771 5.43392 -5.41039 
1 1.75976 5.40965 -3.54243 
1 7.21031 7.07228 -3.80673 
1 7.1103 5.30902 -5.43743 
2 5.34403 7.20881 -5.45321 
1 5.30404 5.39041 -3.68602 
1 10.7213 7.12044 -3.7392 
1 10.7179 5.26833 -5.28561 
1 8.9192 7.12039 -5.50226 
1 8.97247 5.49712 -3.61618 
2 12.4897 5.40756 -3.52106 
1 -10.5646 9.07405 -5.21537 
1 -8.74414 10.8312 -5.23344 
1 -8.67844 8.977 -3.41437 
1 -10.4606 10.7027 -3.42582 
1 -7.07234 10.8262 -3.5005 
1 -5.4101 10.9133 -5.44069 
1 -7.08334 8.99925 -5.24063 
1 -5.35691 8.94843 -3.55711 
1 -1.9283 10.8327 -5.28567 
1 -3.68883 10.716 -3.48078 
2 -3.66011 9.19272 -5.29032 
1 -1.87858 9.0216 -3.45239 
1 -0.120643 9.07059 -5.24062 
1 -1.75542 12.4908 -3.59131 
1 -3.74519 12.6094 -5.49707 
1 -0.0890782 10.7814 -3.57558 
2 1.63565 10.7848 -5.41868 
1 3.63769 10.807 -3.6755 
1 3.54214 9.19261 -5.35692 
1 1.82318 9.13466 -3.58781 
1 1.8115 12.3572 -3.39453 
1 7.36472 10.7558 -3.70577 
2 5.47097 10.7517 -5.61075 
1 7.2186 8.96974 -5.47817 
2 5.49589 8.97039 -3.61317 
1 5.50089 12.5026 -3.73203 
1 10.631 8.80457 -5.50233 
1 9.04509 10.5084 -5.41403 
1 8.9566 8.78937 -3.73677 
1 -5.28062 12.5433 -3.72336 
1 -0.165366 12.4748 -5.31537 
1 -3.43632 14.2425 -3.55978 
1 -0.0189753 14.2463 -3.50583 
1 3.62369 12.3797 -5.49784 
2 1.72939 14.0532 -5.27173 
1 3.65202 14.0529 -3.77341 
1 3.4126 1.65854 12.6366 
1 -14.0606 3.7771 0.170893 
1 -14.3569 1.94579 -1.72328 
1 -14.3247 1.8141 1.77135 
2 -12.4978 3.69091 1.90406 
1 -12.5207 3.63558 -1.6906 
1 -12.6029 1.73918 -0.027947 
1 -0.0280562 1.66272 12.4565 
2 -9.0138 0.18691 1.72836 
2 -12.4095 0.127395 1.83692 
2 -10.779 3.61358 0.0488295 
1 -10.7447 1.76221 -1.6575 
1 -10.6786 1.94215 1.8469 
1 -8.8344 3.67702 -1.7139 
1 -8.86097 3.59782 1.76807 
1 -8.89784 1.97334 -0.0185488 
1 -8.99088 0.0574837 -1.5422 
1 -10.8104 0.123093 0.00749477 
1 -7.21675 0.134396 -0.026204 
1 -7.0856 3.67782 -0.00642578 
1 -7.14188 1.80677 -1.66993 
1 -7.19205 2.0211 1.75508 
1 -5.32823 3.58013 -1.82449 
1 -5.44851 3.52914 1.73239 
1 -5.36859 1.73926 -0.0159112 
2 -5.43923 0.0663099 1.77227 
2 -0.133807 3.39461 14.1934 
2 -3.60786 3.5281 0.0151533 
1 -3.57407 1.72111 -1.85312 
2 -1.63948 3.49199 -1.78591 
1 -3.53984 1.79418 1.80404 
1 -1.64491 3.55968 1.70477 
1 -1.77208 1.70213 0.0634879 
1 -3.50006 0.0898617 -0.0241076 
1 -0.042782 1.80241 1.70648 
1 0.0453664 3.64265 0.0528746 
1 0.00134563 1.69934 -1.8242 
2 -3.5617 1.59567 12.45 
1 -1.73012 -0.00135237 -1.69409 
2 3.65772 3.58593 -0.0871537 
1 3.61595 1.79529 -1.97964 
2 1.70573 3.62027 -1.83847 
1 3.60094 1.8131 1.78904 
1 1.80067 3.65215 1.77309 
2 1.71741 1.80379 0.0227022 
1 -1.68412 1.46873 14.2333 
1 -3.2614 3.33181 14.2321 
2 -1.76389 3.5103 12.3668 
1 7.14597 3.61029 -0.0776498 
1 7.10111 1.73606 -1.88978 
1 7.0884 1.83531 1.6971 
1 5.37983 3.58841 -1.88412 
1 5.39258 3.59486 1.76164 
2 5.41382 1.69657 -0.0301736 
1 5.36942 -0.0299943 -1.80216 
1 7.06653 -0.00288831 -0.0100949 
1 10.6257 3.60262 -0.0837042 
1 10.6611 1.95343 1.71126 
2 10.5421 1.7996 -1.76504 
1 8.7691 3.72042 -1.77545 
1 8.86376 3.61438 1.7278 
1 8.81562 1.75992 -0.0641868 
1 10.6061 0.173706 0.0879355 
2 8.83018 0.103426 1.79427 
1 12.4873 1.90192 0.00435661 
1 -7.1224 1.64621 12.3388 
1 12.472 0.193378 1.69895 
1 8.75514 0.0174447 -1.81582 
1 12.3121 3.62673 -1.75323 
1 12.4643 3.80175 1.67449 
1 14.2006 3.72118 -0.294227 
2 14.1423 1.70286 -1.8328 
1 14.1309 2.15685 1.71976 
1 14.3244 0.326016 0.17262 
1 -12.5876 5.45638 0.0693523 
1 -12.2711 7.30936 -1.57141 
1 -12.1445 7.24579 1.84366 
1 -10.5858 7.06093 0.0690153 
1 -10.6156 5.47565 -1.86221 
1 -10.6336 5.38998 2.0139 
1 -8.82658 7.22917 -1.93235 
2 -8.8184 7.17913 1.71343 
1 -8.90417 5.37527 -0.00657682 
1 -7.07487 7.13705 -0.0238079 
1 -7.20566 5.33562 -1.75136 
2 -5.26645 7.16843 -1.73905 
1 -7.06512 5.35154 1.8408 
1 -5.32743 7.19908 1.817 
1 -5.34878 5.41349 0.0785921 
1 -3.62253 7.22988 0.094183 
1 -1.90573 7.16312 -1.76868 
1 -1.77 7.17047 1.80792 
1 -3.51223 5.30205 -1.77637 
1 -3.65188 5.4255 1.77663 
2 -1.78965 5.41498 0.00364162 
1 -0.0263185 5.36251 -1.73648 
1 0.0387653 5.48047 1.8433 
1 -0.11054 7.16638 0.0352916 
1 3.55272 7.06659 -0.0382728 
1 1.79125 7.24612 -1.64309 
2 1.72198 7.175 1.7156 
1 3.56352 5.40815 -1.8003 
2 3.63879 5.41509 1.77335 
1 1.71335 5.38286 -0.0149296 
1 7.32498 7.02742 -0.0184062 
1 7.14976 5.3721 -1.75793 
2 5.39242 7.1187 -1.77949 
1 7.18678 5.41968 1.73033 
1 5.56471 7.15224 1.83542 
1 5.46968 5.42703 0.0561296 
1 10.5196 7.0672 -0.229553 
1 10.5744 5.28164 1.70953 
1 10.5874 5.45336 -1.85887 
1 8.918 7.21247 -1.88275 
2 9.14542 7.27128 1.83124 
1 8.9434 5.36578 -0.0258259 
2 11.8991 7.34395 1.8419 
1 12.5132 7.21396 -1.8278 
1 12.4317 5.45099 -0.143845 
2 -8.84912 10.7505 -1.56962 
1 -8.93684 10.8563 1.47014 
2 -10.5674 9.01177 -1.53671 
1 -10.6927 9.07556 1.40242 
1 -8.64995 8.85379 -0.0139321 
1 -6.97748 10.7792 -0.00170822 
1 -5.26679 10.7431 1.84268 
1 -5.31862 10.8628 -1.76968 
1 -6.90842 9.00326 -1.72044 
1 -7.09927 9.0457 1.83641 
1 -5.28935 9.03676 0.0521793 
1 -7.01265 12.5057 1.89323 
2 -5.36487 12.5123 0.0415371 
1 -7.14643 12.5103 -1.81016 
1 -3.6241 10.79 -0.0517268 
2 -1.82986 10.7451 1.79752 
1 -1.84289 10.8234 -1.78684 
1 -3.58766 9.06352 -1.65722 
2 -3.59314 9.02946 1.85243 
1 -1.7862 8.96305 -0.0562397 
1 -3.43901 12.4818 -1.81479 
2 -3.67513 12.6023 1.93449 
1 -1.77174 12.5093 -0.0342597 
1 -0.0392704 10.745 -0.0324657 
1 -0.0966823 8.92073 1.80057 
2 0.0425763 8.93534 -1.73711 
1 3.54973 10.6252 0.0826812 
1 1.78743 10.7831 1.86041 
1 1.7591 10.7129 -1.82283 
1 3.5294 8.91555 -1.79917 
1 3.6152 8.80847 1.78442 
1 1.81408 8.9833 0.0539673 