ITEM: TIMESTEP
1220000
ITEM: NUMBER OF ATOMS
1289
ITEM: BOX BOUNDS pp pp pp
-100 100
-100 100
-100 100
ITEM: ATOMS type x y z 
1 -1.81396 -7.16756 -12.4334 
1 -3.57172 -5.11882 -12.4939 
1 -0.0795473 -5.35634 -12.287 
1 1.56178 -7.13974 -12.541 
1 3.31347 -5.40806 -12.4533 
1 -7.23652 -1.71161 -12.4322 
2 -5.48821 -3.49957 -12.3503 
2 -1.73098 -1.90624 -14.3437 
2 -3.71672 -1.77553 -12.4719 
1 -1.77347 -3.55264 -12.4428 
1 -0.052228 -1.76611 -12.3985 
1 0.04629 -3.64983 -14.1993 
2 3.09105 -3.63544 -14.1844 
1 1.57313 -3.57041 -12.3107 
1 3.28309 -1.88091 -12.4479 
1 1.66248 -1.70581 -14.348 
2 3.47456 0.0823753 -14.1929 
2 -0.0216266 0.0535129 -14.2612 
1 5.06501 -1.85606 -14.3559 
2 7.03137 -1.72089 -12.7326 
2 5.1023 -3.53805 -12.5458 
1 1.64524 -12.6071 -7.09986 
1 -8.83759 -8.83481 -6.94102 
2 -5.34776 -10.6123 -8.65118 
1 -5.42786 -8.83373 -10.4756 
1 -7.24148 -8.79809 -8.91778 
1 -5.37651 -8.86225 -6.99847 
1 -7.03905 -10.5322 -6.82102 
1 -1.7794 -12.5758 -7.1321 
1 -1.88029 -10.7859 -8.84225 
1 -1.98693 -9.04253 -10.7468 
1 -3.69958 -10.8021 -6.8732 
2 -3.54974 -8.84528 -8.66924 
1 -1.82895 -8.92948 -6.9913 
1 -0.0880576 -8.86526 -8.89079 
1 -0.0278055 -10.4491 -10.6407 
2 -0.0490933 -10.7807 -7.08078 
2 1.76243 -10.7786 -8.94612 
1 1.70063 -8.87063 -10.8069 
1 3.38917 -10.8015 -7.1549 
2 3.54892 -8.89759 -8.93649 
1 1.65742 -8.99004 -7.04265 
1 5.17775 -10.655 -8.85685 
1 7.07804 -8.91542 -8.86165 
1 5.27022 -8.84096 -7.21463 
1 7.10883 -10.4421 -7.07417 
1 5.33139 -8.92437 -10.563 
1 8.9779 -8.81106 -7.18846 
1 -10.9043 -5.20687 -8.84977 
1 -8.88049 -5.26388 -10.4845 
1 -8.98692 -7.0397 -8.83231 
2 -8.97125 -5.24517 -7.06609 
2 -10.8042 -7.05159 -6.99231 
1 -7.07353 -7.02776 -10.6252 
1 -5.40969 -5.28231 -10.6008 
1 -6.99044 -5.26605 -8.87155 
1 -5.35091 -7.10884 -8.84285 
2 -7.05169 -7.0757 -7.12586 
1 -5.33409 -5.23375 -7.05929 
2 -3.6089 -7.11738 -10.7085 
1 -1.96005 -5.39708 -10.562 
1 -1.85391 -7.1925 -8.99727 
1 -3.77844 -5.33688 -8.84639 
1 -3.62327 -7.02791 -6.97095 
2 -1.9101 -5.38446 -7.00924 
2 -0.0780597 -7.27352 -7.08334 
1 -0.168079 -7.22727 -10.7132 
2 -0.122393 -5.46459 -8.86702 
2 3.54249 -7.09059 -10.7396 
1 1.64263 -5.40815 -10.7473 
1 1.67838 -7.23656 -9.02401 
1 3.36905 -5.28757 -8.96012 
1 3.54535 -7.09777 -7.10616 
2 1.86473 -5.33114 -7.09142 
1 6.92696 -7.01266 -10.6587 
1 5.2538 -5.26669 -10.6885 
1 5.26881 -7.05448 -8.90311 
1 7.14192 -5.33518 -8.79941 
1 7.0231 -7.09869 -7.17833 
1 5.25617 -5.41844 -7.10745 
1 8.86159 -5.36065 -10.6704 
1 10.6602 -5.22433 -8.84638 
1 10.7773 -6.90089 -7.02767 
2 8.87749 -6.95389 -8.77906 
1 8.93899 -5.08554 -7.08248 
1 -12.4826 -1.62138 -6.93384 
1 -10.8781 -2.02215 -8.79307 
1 -8.90668 -1.81521 -10.5852 
1 -10.85 -3.63228 -7.0098 
1 -9.03427 -3.62043 -8.91506 
1 -9.00579 -1.85861 -7.16631 
1 -8.90872 -0.0354968 -8.80285 
1 -10.7323 -0.0959226 -7.21269 
1 -7.24454 -3.60859 -10.6443 
1 -5.49847 -1.741 -10.5463 
1 -7.20396 -1.85051 -8.81504 
1 -5.38399 -3.51195 -8.90685 
1 -7.17255 -3.63991 -7.05913 
1 -5.37435 -1.84994 -7.15027 
1 -7.17845 -0.15724 -10.5211 
1 5.05838 -0.324063 12.5032 
1 -3.55968 -3.48624 -10.6693 
1 -1.92795 -1.70279 -10.699 
1 -3.60457 -1.76282 -8.8808 
2 -1.84098 -3.51221 -8.80997 
1 -3.68668 -3.52491 -7.02303 
1 -1.94575 -1.83887 -6.99737 
1 -0.102498 -3.54716 -7.00602 
1 -0.233563 -0.154931 -7.17899 
1 -0.200315 -3.46748 -10.6614 
1 -0.0807995 -1.86063 -8.89797 
1 -1.90777 -0.00931289 -9.00416 
1 3.52579 -3.56827 -10.811 
1 1.61935 -1.88782 -10.6815 
1 1.57702 -3.62665 -9.02019 
2 3.52843 -1.90399 -8.92872 
1 3.65735 -3.56744 -7.02187 
1 1.6492 -1.95431 -7.17978 
1 7.0651 -3.69662 -10.7887 
1 5.3508 -1.78465 -10.8369 
1 7.0932 -1.9855 -8.98052 
1 5.21423 -3.63995 -8.87656 
1 7.00448 -3.58398 -7.13128 
1 5.39073 -1.74178 -7.06604 
2 5.12783 -3.4098 12.3969 
1 8.81238 -2.02607 -10.7905 
1 10.8551 -3.51846 -7.2571 
1 8.93866 -3.61117 -9.0807 
2 8.80505 -1.8357 -7.12135 
2 10.5558 -1.72732 -8.96817 
1 7.07621 -1.73777 12.3769 
1 10.3041 0.0022292 -10.6699 
1 -0.15674 -0.354379 14.3905 
1 12.4573 -1.68879 -7.31961 
1 -5.36086 -12.6144 -3.41103 
1 -1.66218 -14.148 -5.2103 
1 -2.01472 -12.6149 -3.2574 
2 -0.168179 -14.2371 -3.35719 
2 2.00984 -12.7424 -3.596 
1 4.95182 -12.5712 -3.47819 
1 -10.4635 -8.99826 -5.25747 
1 -8.69672 -10.6573 -5.27247 
2 -8.75415 -9.08071 -3.36852 
1 -7.06949 -10.9408 -3.22567 
1 -5.48476 -10.7433 -5.11555 
1 -6.95462 -8.82884 -5.05605 
1 -5.2449 -8.92546 -3.35634 
1 -3.68696 -12.6799 -5.21305 
1 0.148601 -12.6035 -5.28818 
2 -1.85074 -10.9821 -5.21762 
1 -3.6054 -10.8033 -3.39016 
1 -3.63064 -8.94933 -5.2989 
2 -1.84804 -9.00901 -3.40309 
1 0.00416224 -9.04386 -5.1672 
2 0.0601408 -10.8562 -3.46718 
1 3.49061 -12.5437 -5.44505 
1 1.82598 -10.7489 -5.26688 
1 3.50369 -10.749 -3.53712 
1 3.59543 -8.88356 -5.47355 
1 1.77704 -8.93866 -3.48973 
2 6.87937 -10.7711 -3.77614 
1 5.2214 -10.8039 -5.61803 
1 6.92044 -8.80498 -5.4864 
2 5.27768 -8.94221 -3.6793 
1 8.79874 -10.648 -5.41516 
2 8.82933 -8.87622 -3.70288 
1 10.7385 -9.03898 -5.46971 
1 -12.5881 -5.40908 -3.41731 
1 -10.751 -7.19927 -3.57126 
1 -10.7611 -5.3048 -5.23043 
2 -8.85474 -7.10108 -5.19035 
1 -8.91579 -5.31615 -3.3433 
1 -7.04878 -7.13487 -3.33442 
1 -7.12348 -5.29128 -5.18009 
1 -5.27393 -7.14152 -5.15336 
1 -5.3323 -5.38919 -3.44651 
1 -1.91016 -7.25788 -5.14697 
1 -3.55196 -7.15461 -3.43485 
1 -3.73644 -5.38325 -5.11879 
1 -1.93379 -5.31324 -3.392 
2 -0.135389 -5.34581 -5.15199 
1 -0.088233 -7.13814 -3.56089 
2 1.89519 -7.26043 -5.27593 
1 3.59151 -7.06741 -3.5382 
1 3.64567 -5.33206 -5.20052 
1 1.76707 -5.44181 -3.67351 
1 7.02818 -7.09288 -3.52643 
1 5.37438 -7.0032 -5.32439 
1 7.09452 -5.26277 -5.4598 
1 5.45466 -5.30947 -3.5358 
1 10.7981 -7.13038 -3.68993 
1 10.7805 -5.24775 -5.32052 
2 8.82464 -7.02246 -5.55307 
2 8.89489 -5.29224 -3.58535 
1 12.5564 -5.11351 -3.35993 
1 -14.2068 -3.44491 -3.33806 
1 -12.6959 -3.64998 -5.32934 
2 -12.5801 -1.66801 -3.4936 
1 -10.846 -1.74141 -5.30426 
2 -10.8242 -3.55766 -3.52052 
1 -9.01156 -3.53475 -5.26092 
2 -8.98326 -1.7246 -3.42623 
1 3.33673 -1.93784 12.3729 
2 -7.08408 -1.79981 -5.31693 
1 -7.13425 -3.6158 -3.55246 
1 -5.33853 -3.64373 -5.21376 
1 -5.33543 -1.85123 -3.41754 
1 -3.74029 -1.76877 -5.27156 
1 -1.91628 -3.49918 -5.24955 
1 -3.67609 -3.44861 -3.48347 
1 -1.75577 -1.82817 -3.56096 
1 -0.108339 -3.52337 -3.60971 
1 -0.0385812 -1.81093 -5.30359 
1 1.76387 -3.63852 12.3079 
1 -1.77807 0.0444954 -5.32614 
1 1.77118 -3.58136 -5.28208 
1 3.53657 -1.81469 -5.33 
1 3.47126 -3.5537 -3.60033 
2 1.74665 -1.74748 -3.50763 
1 1.79175 -2.10116 14.266 
1 7.00884 -1.77416 -5.26476 
1 7.07317 -3.497 -3.57669 
1 5.257 -3.47509 -5.33081 
1 5.3947 -1.73631 -3.50399 
1 10.4988 -1.67354 -5.45688 
1 10.6381 -3.47858 -3.62211 
1 8.83604 -3.54848 -5.36936 
1 8.89581 -1.77847 -3.58911 
1 12.1325 -1.63753 -3.58446 
2 12.4405 -3.14552 -5.34057 
2 14.0742 -3.05167 -3.31403 
1 -5.32473 -12.5903 0.307164 
2 -7.18672 -12.4478 -1.40302 
2 -7.28876 -12.4256 1.83553 
1 -3.73959 -14.3854 0.230459 
1 -1.91462 -14.3099 -1.50142 
1 -1.62869 -14.3912 1.78709 
1 -0.00822477 -14.4383 0.0131325 
2 -0.0362473 -12.5257 -1.57145 
1 1.95119 -14.3757 -1.69384 
1 3.58368 -14.2608 0.296835 
2 1.54982 -14.303 1.87943 
1 5.06605 -14.1866 -1.77861 
1 -10.8565 -10.5561 -0.0870766 
1 -10.6096 -8.8984 -1.77218 
1 -8.9933 -10.7377 -1.4843 
2 -9.01108 -10.6969 1.62361 
1 -8.87193 -8.90066 0.00375444 
2 -10.8843 -8.7491 1.87922 
1 -7.06097 -10.5418 0.127294 
2 -5.31743 -10.737 -1.59439 
2 -5.33097 -10.6717 1.79993 
1 -7.00623 -8.9747 -1.67002 
1 -7.13324 -8.81455 1.83047 
1 -5.3137 -8.94584 0.144124 
1 -3.6339 -12.5697 -1.57863 
1 -1.86456 -12.5907 0.194319 
1 -3.51277 -12.5635 1.89567 
1 -3.44828 -10.7961 0.212083 
1 -1.79111 -10.7308 -1.61034 
1 -1.75005 -10.7031 1.98103 
1 -3.58396 -8.96009 -1.52148 
1 -3.49304 -8.90435 1.86541 
1 -1.72885 -8.95506 0.0708484 
1 -0.0307492 -12.4748 1.92863 
1 0.0200097 -8.93157 -1.75125 
1 -0.00185368 -8.88997 1.93792 
1 -0.0330946 -10.5947 0.10672 
1 3.5163 -12.354 1.9035 
2 1.73112 -12.4869 0.0596338 
1 3.45388 -12.4831 -1.65628 
1 3.54919 -10.5657 0.115613 
1 1.80681 -10.6604 -1.68932 
1 1.73329 -10.6629 1.96119 
1 3.53464 -8.90518 -1.67083 
1 3.63295 -8.92639 1.87271 
1 1.803 -8.88295 0.0274273 
1 5.26601 -12.507 0.0954864 
1 7.09821 -12.2074 1.85248 
2 7.02684 -12.4033 -1.6686 
1 6.96168 -10.6229 -0.0505074 
1 5.22333 -10.6005 -1.76175 
1 5.27432 -10.709 1.87895 
1 7.02998 -8.91823 -1.8163 
2 7.15634 -8.97027 1.71471 
1 5.34471 -8.84533 0.0684135 
1 8.86081 -10.8993 -2.05662 
1 8.86236 -12.0671 0.16582 
1 10.6922 -8.88651 -2.01127 
1 10.7225 -8.86647 1.60198 
2 8.89799 -8.97528 -0.147781 
1 9.04395 -10.6774 2.00901 
1 -12.4126 -7.11253 -1.73891 
1 -12.7362 -5.38686 -0.0309334 
2 -10.7555 -7.10349 0.0250283 
1 -10.6761 -5.20223 -1.71022 
1 -10.8536 -5.34178 1.81887 
1 -8.96841 -7.11755 -1.67621 
1 -9.00333 -7.04752 1.64342 
1 -8.9698 -5.21439 -0.018793 
1 -7.17012 -7.19742 -0.0444924 
1 -7.12516 -5.35174 -1.70824 
1 -5.31271 -7.2823 -1.62786 
2 -7.08645 -5.46369 1.70289 
1 -5.20016 -7.20626 1.88053 
1 -5.47504 -5.34071 -0.0610463 
1 -3.56758 -7.19197 0.167321 
1 -1.80242 -7.10119 -1.67321 
1 -1.87504 -7.25312 1.76462 
1 -3.6347 -5.33557 -1.70211 
1 -3.661 -5.40753 1.84121 
2 -1.79237 -5.35372 0.0268988 
1 0.0230444 -7.05967 0.0838667 
1 -0.0148239 -5.39654 -1.78411 
1 0.117284 -5.4967 1.84192 
1 3.51357 -7.24448 0.0934766 
2 1.72195 -7.09976 -1.79797 
1 1.82231 -7.18228 1.78881 
2 3.65259 -5.45966 -1.79001 
1 3.6074 -5.4881 1.77704 
1 1.70962 -5.36908 0.131913 
1 7.11795 -7.15692 -0.1401 
1 5.35716 -7.22051 -1.73758 
1 7.08139 -5.24358 -1.83068 
1 5.38403 -7.15906 1.76364 
2 7.20613 -5.34426 1.69763 
1 5.42939 -5.35932 -0.0027074 
1 10.7601 -7.17506 -0.0709178 
1 10.6814 -5.29966 1.5497 
1 10.6171 -5.32099 -1.91041 
1 9.1002 -7.229 -1.87047 
1 8.92128 -7.10052 1.64876 
1 8.87943 -5.3802 -0.221385 
2 12.4272 -5.24055 -0.352088 
1 12.485 -7.15265 -1.81107 
1 12.5016 -7.00929 1.64989 
1 -14.2969 -3.59855 -0.0236111 
2 -14.254 -1.68192 -1.61341 
1 -14.3094 -1.74695 1.79673 
1 -12.5057 -3.59212 -1.66788 
1 -12.5004 -1.83784 0.027289 
1 -12.6815 -3.53364 1.69441 
1 -10.8137 -3.71268 0.00547838 
1 -10.7895 -1.86661 -1.67053 
1 -10.7598 -1.71269 1.77604 
1 -8.85635 -3.54344 -1.76374 
2 -9.01574 -3.66032 1.79488 
1 -9.10261 -1.91904 -0.046792 
1 0.0636936 -1.84582 12.4044 
1 -7.21286 -3.52312 0.0710602 
1 -7.17114 -1.75092 -1.64801 
1 -7.13936 -1.7386 1.7358 
1 -5.39453 -3.59344 -1.69112 
2 -5.36541 -3.61128 1.78217 
2 -5.39059 -1.79302 -0.107617 
1 3.42384 -0.149262 14.1787 
1 -3.57999 -3.56684 0.00585142 
1 -3.52858 -1.71346 -1.7614 
2 -1.86884 -3.50085 -1.75584 
2 -3.53595 -1.68265 1.82213 
1 -1.77661 -3.48581 1.76538 
1 -1.79533 -1.7393 0.00482312 
1 -0.114573 -1.77892 1.82333 
1 -0.107964 -1.68608 -1.77109 
1 -0.106182 -3.59306 0.0466516 
2 3.62688 -3.6602 -0.071284 
2 1.70571 -3.5879 -1.79868 
1 3.49181 -1.70209 -1.9106 
1 1.66421 -3.43609 1.67696 
1 3.59989 -1.74271 1.79875 
1 1.74496 -1.80172 -0.072681 
2 3.54045 -0.0056142 -0.0368681 
1 7.10517 -3.47089 0.101318 
1 7.1685 -1.68516 -1.81148 
1 7.10537 -1.77158 1.73178 
1 5.35183 -3.52559 -1.93227 
1 5.30547 -3.60625 1.74623 
2 5.4627 -1.7435 -0.0745689 
1 10.7231 -3.477 0.0209791 
1 10.8418 -1.93978 1.9399 
1 10.5683 -1.69706 -1.76372 
1 8.93421 -3.50817 -1.95152 
1 9.01252 -3.553 1.91341 
2 8.87169 -1.8104 0.0156312 
1 12.2566 -3.22363 -1.75965 
1 12.6096 -1.64372 0.0846892 
1 -1.83524 -1.99228 14.0622 
2 12.674 -3.58189 1.67672 
1 -1.83519 -3.71674 12.3779 
2 14.1818 -3.5063 -0.34112 
1 14.6801 -1.49555 -1.60852 
1 14.5544 -1.89464 1.74582 
2 -5.30491 -12.6547 3.49839 
2 -3.33957 -14.21 3.55687 
1 -0.194845 -14.4168 3.77523 
1 3.34924 -14.1497 3.48493 
2 0.0277172 -12.4897 5.30961 
1 -10.7901 -10.6035 3.50583 
1 -10.7247 -9.02351 5.13828 
2 -8.87524 -8.84173 3.44236 
2 -8.88873 -10.8205 5.11961 
1 -7.24493 -10.9079 3.56977 
1 -5.49805 -10.8634 5.38203 
1 -7.04336 -9.03003 5.36401 
2 -5.42292 -9.00204 3.57497 
2 -3.33722 -12.4992 5.35479 
1 -1.68555 -12.4466 3.56165 
1 -1.56362 -10.752 5.29809 
1 -3.55111 -10.6912 3.59837 
2 -3.48815 -9.0628 5.39652 
1 -1.69501 -8.88064 3.67195 
1 0.0518382 -8.84943 5.36841 
1 3.467 -12.6526 5.43934 
1 0.105884 -10.6707 3.51567 
1 1.69073 -12.5235 3.65352 
1 1.73727 -10.5219 5.40004 
2 3.55505 -10.7482 3.77018 
1 3.55276 -8.85154 5.49407 
1 1.88222 -8.84368 3.59469 
1 5.38366 -12.4814 3.82809 
1 7.30826 -10.8629 3.82965 
1 5.36195 -10.7493 5.49982 
2 7.26019 -8.79318 5.47921 
2 5.36268 -8.93441 3.61393 
1 9.17598 -10.3921 5.33992 
2 8.94505 -8.70651 3.54754 
2 10.8165 -8.33092 5.39584 
1 -12.6421 -5.28487 3.54314 
1 -10.8203 -7.05904 3.49763 
1 -10.7894 -5.41545 5.20282 
1 -8.89892 -7.25384 5.08762 
1 -9.03422 -5.38564 3.5657 
1 -7.11231 -7.14435 3.66049 
1 -7.1638 -5.43698 5.39293 
1 -5.3647 -7.25558 5.42658 
2 -5.25533 -5.48415 3.69671 
1 -1.84353 -7.17109 5.38105 
1 -3.51738 -7.25188 3.66621 
1 -3.54304 -5.29672 5.45305 
2 -1.75363 -5.47341 3.45946 
2 0.0391032 -5.42287 5.40977 
1 0.0841117 -7.23256 3.59035 
1 1.86488 -7.22499 5.42167 
1 3.56233 -7.08658 3.65589 
1 3.56826 -5.29523 5.34793 
1 1.80625 -5.35807 3.53437 
1 7.0551 -7.16637 3.60392 
1 5.27992 -7.1645 5.27723 
2 7.15062 -5.28412 5.27304 
2 5.20158 -5.34453 3.51784 
1 10.7758 -7.02556 3.36809 
1 10.7905 -5.5982 5.28803 
1 8.90095 -6.96859 5.56798 
1 8.99661 -5.47219 3.41706 
2 12.6811 -5.26016 3.45362 
1 -14.086 -3.28994 3.61955 
1 -12.5038 -3.51565 5.47241 
1 -12.2112 -1.83658 3.65871 
1 -10.4845 -1.70878 5.45285 
1 -10.7046 -3.54794 3.601 
1 -8.8498 -3.51781 5.3239 
2 -8.96904 -1.77539 3.73052 
1 -12.3875 -0.0995394 5.46725 
1 -7.20536 0.152143 3.65036 
1 -7.0447 -1.7062 5.43878 
2 -7.06722 -3.55685 3.65871 
1 -5.31036 -3.53228 5.36896 
1 -5.37715 -1.66242 3.58682 
2 -3.56477 -1.73763 5.26422 
2 -1.80751 -3.63097 5.321 
1 -3.57503 -3.69434 3.53522 
1 -1.77779 -1.78236 3.59165 
1 0.0248215 0.0124048 3.59496 
1 0.0214514 -1.61324 5.31068 
1 0.0134131 -3.60663 3.47086 
1 1.69486 -3.50356 5.25237 
1 3.46888 -1.89551 5.30097 
1 3.3658 -3.58965 3.48788 
1 1.79587 -1.8937 3.52836 
1 -3.59944 -1.85694 12.4815 
1 7.12636 -1.79822 5.42187 
1 7.0788 -3.55926 3.35157 
1 5.35994 -3.52177 5.25394 
1 5.35621 -1.87384 3.49902 
2 -0.107942 -3.77742 14.0221 
1 8.92413 -0.0135563 5.27996 
2 10.8728 -1.95645 5.33545 
1 10.8261 -3.78518 3.64125 
2 8.99911 -3.6565 5.18923 
1 8.96948 -1.85413 3.57738 
2 12.6642 -1.88862 3.61044 
1 12.7443 -3.9234 5.50533 
1 14.6184 -3.44528 3.44348 
1 14.3112 -1.89588 5.4326 
2 14.4654 -0.120099 3.45686 
1 -8.91607 -8.96642 6.89305 
1 -5.302 -9.16004 10.3739 
1 -5.31851 -10.9681 8.68582 
1 -7.11038 -10.8696 7.07953 
2 -7.16182 -9.06273 8.74305 
1 -5.31484 -8.95635 7.18016 
1 -1.60546 -12.5847 7.14428 
2 -1.80309 -8.84171 10.6866 
1 -1.68494 -10.8565 8.80089 
1 -3.51403 -10.7825 7.09213 
1 -3.60499 -9.03924 8.86163 
1 -1.74334 -8.87786 7.16355 
1 -0.0353648 -10.5965 7.10695 
1 1.64135 -12.2889 7.10059 
1 -0.0799738 -8.98835 8.95244 
1 1.76207 -10.6414 8.73988 
1 3.50691 -10.7195 7.00833 
1 3.58235 -8.8993 8.78337 
1 1.70237 -8.82979 7.1908 
1 1.87693 -8.99224 10.6217 
1 7.29656 -10.4413 7.16599 
1 5.28403 -8.81404 10.4808 
1 5.24087 -10.6528 8.60572 
1 7.32964 -8.99153 9.10343 
1 5.35554 -8.86139 7.10374 
1 9.07732 -8.65179 7.20141 
1 -10.5353 -5.53386 8.92087 
2 -10.5704 -7.16832 6.88424 
1 -8.84735 -7.3459 8.77364 
1 -8.85998 -5.43438 7.03144 
1 -8.67809 -5.37149 10.6497 
1 -6.92025 -7.33987 10.5151 
1 -7.12946 -5.47289 8.78151 
1 -5.29867 -7.14107 8.75154 
1 -7.24078 -7.21013 7.03882 
1 -5.3358 -5.34192 7.00218 
1 -5.51104 -5.44303 10.6909 
2 -3.77779 -7.18294 10.6743 
1 -1.90528 -5.4259 10.7268 
1 -1.85266 -7.15328 8.93084 
2 -3.65085 -5.30615 8.84574 
1 -3.51268 -7.16304 7.1751 
1 -1.80397 -5.46875 7.08005 
1 -0.0680252 -7.23725 7.31455 
2 0.00597205 -5.30862 9.07539 
1 0.0703665 -7.18663 10.6655 
1 3.70472 -7.13711 10.7151 
1 1.8519 -5.32983 10.4315 
1 1.82555 -7.26515 9.03479 
1 3.69872 -5.45486 8.94187 
1 3.57475 -7.05748 7.14648 
2 1.87425 -5.46197 7.29106 
1 7.07099 -7.24717 10.539 
1 5.47512 -5.41375 10.7498 
1 5.44193 -7.31664 8.74312 
1 7.07568 -5.38089 9.07739 
1 7.18498 -7.20183 7.25013 
2 5.42706 -5.38432 7.17269 
1 8.57412 -5.32325 10.7148 
1 10.5613 -5.02551 9.13921 
1 10.6915 -6.70384 7.50492 
1 9.01491 -7.1666 9.03013 
1 8.78634 -5.29231 7.34547 
2 -11.962 -1.79976 7.48072 
1 -9.0107 -1.67035 10.5461 
1 -11.191 -2.97408 9.467 
2 -10.6701 -3.80386 7.01511 
1 -8.84231 -3.58716 8.84115 
2 -9.05398 -1.7263 7.24951 
1 -11.0671 -0.379829 9.53092 
1 -7.16511 -3.59087 10.687 
1 -5.32623 -1.75639 10.6838 
1 -7.15722 -1.71035 8.89633 
2 -5.61787 -3.44713 8.82009 
1 -7.22683 -3.60475 7.03534 
1 -5.44533 -1.66446 7.11981 
1 -7.22958 -1.70711 12.1381 
1 -3.65743 -3.59422 10.6244 
1 -1.87927 -1.75367 10.7802 
1 -3.62133 -1.74167 9.03639 
2 -1.8428 -3.4638 8.90256 
1 -3.60174 -3.49873 7.09901 
1 -1.72471 -1.73356 7.0825 
1 -0.118858 -1.62796 9.03724 
1 -5.44562 -3.52674 12.5321 
1 -0.0896614 -3.45366 10.7192 
2 -0.00743217 -3.47782 7.08637 
1 1.762 -1.73092 7.10841 
2 3.61612 -3.49251 7.06339 
1 1.74242 -1.80405 10.6845 
1 1.76791 -3.36358 8.88419 
1 3.51526 -1.59963 8.8088 
1 3.48526 -3.52058 10.5074 
1 3.51197 -0.178281 10.7164 
1 7.08906 -3.66001 7.28985 
1 5.26125 -3.57949 9.0119 
1 5.41755 -1.83203 7.17415 
1 6.95033 -1.85182 8.99314 
1 7.14223 -3.53114 10.6954 
1 5.25209 -1.70552 10.5819 
1 5.40329 0.0575559 8.92087 
1 3.6249 -5.22857 12.2335 
1 1.84704 -5.26201 13.9214 
1 8.81537 -3.53984 8.97989 
2 10.7925 -2.00676 8.93524 
1 8.69825 -1.78026 10.7264 
1 8.82758 -1.87084 7.14813 
1 10.6596 -3.74224 7.05822 
2 12.5151 -1.9243 7.16756 
1 12.3961 -0.0935235 8.76265 
1 0.0306109 -5.27901 12.0487 
1 -0.0848054 -8.66953 12.5337 
1 -0.0505212 -6.68628 14.0234 
1 -3.69324 -5.31078 12.3786 
1 -1.91752 -7.04925 12.5979 
2 1.80905 -7.00626 12.2834 
1 -5.40914 0.0209804 -12.4289 
1 -3.53675 -0.103891 -14.3917 
1 -5.42236 -0.133241 -8.79513 
1 -3.74319 -0.0504081 -10.6785 
1 -0.0760755 -0.0406583 -10.728 
1 -3.60279 0.0557531 -7.02159 
1 3.44908 -0.0257779 -10.6394 
2 1.58668 -0.0729137 -8.96714 
2 5.40194 0.0425851 -9.03627 
2 -7.09113 0.0151279 -3.48845 
1 -5.39372 -0.016096 -5.47795 
1 1.77572 -0.0718399 -5.36041 
1 7.12384 0.117449 -3.63315 
2 12.4994 0.0753918 -5.34117 
2 14.2317 -0.173423 -3.64142 
1 -14.4905 0.121241 -0.0576282 
2 -12.56 0.0840471 1.67661 
1 1.63101 -0.000399186 -1.81635 
2 1.68757 -0.101684 1.7369 
1 7.23138 -0.00486453 -0.0380803 
1 12.6227 -0.0156859 1.82132 
1 -14.0991 -0.202672 3.66304 
1 -10.6114 0.0278025 3.6254 
1 -1.79449 0.117162 5.23698 
1 3.61405 -0.142487 3.56809 
1 5.29169 -0.125136 5.36014 
2 10.954 0.0656453 3.65047 
1 12.6622 -0.0257651 5.49909 
1 3.51576 -0.0618987 7.04023 
2 -0.119004 0.0979723 7.09761 
1 7.03732 -0.0277394 7.05496 
1 -7.13468 1.78337 -12.3672 
1 -5.38523 3.67543 -12.5449 
1 1.75646 7.31903 12.4798 
2 -1.77757 1.72279 -14.4974 
2 -3.75824 1.81126 -12.7864 
1 -1.92127 3.66406 -12.5892 
1 3.2938 5.32639 12.6519 
2 -1.87066 0.0371919 -12.4687 
2 -0.118383 1.9262 -12.4907 
1 -0.1508 3.87671 -14.1871 
1 3.3759 3.64172 -14.0811 
1 3.43525 1.83672 -12.3124 
2 1.64511 3.70116 -12.4231 
1 1.68613 1.90946 -14.3858 
2 1.76522 -0.0154657 -12.4192 
1 5.24429 1.80363 -14.1399 
1 7.07924 1.74941 -12.5656 
1 5.38294 3.73575 -12.4299 
2 5.25608 0.0111103 -12.514 
1 -1.83142 7.45147 -12.4063 
1 -3.64206 5.46714 -12.6559 
1 -0.324015 5.50288 -12.3681 
1 1.64752 7.04345 -12.3207 
1 3.57843 5.36941 -12.4077 
1 -12.3878 1.9017 -7.38818 
1 -10.9314 2.79025 -9.18795 
1 -8.95125 1.79238 -10.6405 
2 -8.85793 3.95369 -8.86277 
2 -9.15875 1.95439 -7.24421 
1 -10.9208 3.91214 -6.98115 
1 -11.0794 0.391751 -9.6252 
1 -7.21793 3.65073 -10.7358 
2 -5.27411 1.96322 -10.6829 
2 -7.17432 1.82109 -8.99795 
1 -5.38117 3.6585 -8.8978 
1 -7.19106 3.84627 -7.16761 
2 -5.50368 1.82799 -7.13051 
1 -1.47443 6.88801 12.5563 
1 -3.60039 3.75521 -10.9649 
1 -2.02722 1.79607 -10.8042 
1 -3.64429 1.77296 -8.73173 
2 -1.91565 3.56914 -8.92405 
2 -3.6929 3.7651 -7.00141 
1 -1.82684 1.71487 -7.10111 
1 -0.256115 3.58758 -7.15456 
1 -0.254494 1.76558 -9.00195 
1 -0.120288 3.57289 -10.7692 
1 -3.66902 5.27105 12.6038 
1 0.175173 5.22308 12.3939 
1 6.88391 1.40666 12.6465 
1 3.48748 3.62037 -10.6396 
1 1.64888 1.86616 -10.6079 
1 3.53532 1.79784 -8.8458 
2 1.64763 3.67702 -8.98388 
1 3.54352 3.70649 -7.03312 
2 1.62806 1.72306 -7.13553 
1 3.50312 -0.0430103 -7.11776 
1 5.39238 3.55442 12.5912 
1 1.76185 3.30064 12.3461 
2 7.03614 3.48943 -10.635 
1 5.22092 1.87407 -10.7255 
1 7.07375 1.8427 -8.96937 
1 5.15419 3.6134 -8.83325 
1 7.00374 3.57678 -7.28673 
1 5.24932 1.81212 -7.10575 
2 6.99378 0.075857 -7.04964 
1 3.56973 1.71002 12.4126 
1 8.94077 1.93046 -10.8724 
2 10.635 1.86769 -9.02911 
1 8.79981 3.47472 -8.9603 
1 8.81638 1.82552 -7.18557 
1 10.6535 3.60484 -7.20473 
2 12.3252 1.6844 -7.23488 
1 -10.8393 5.44475 -8.99931 
1 -10.9032 7.0509 -7.08574 
1 -9.06333 7.26337 -8.84994 
1 -9.05709 5.50553 -6.97005 
1 -8.71106 5.59736 -10.6302 
2 -5.41266 5.48513 -10.6497 
1 -7.06458 7.35419 -10.4971 
1 -7.06903 5.54316 -8.82239 
1 -5.2863 7.40995 -8.70842 
2 -7.19322 7.34762 -7.06048 
1 -5.36063 5.61695 -7.09803 
2 -3.66043 7.41551 -10.6088 
1 -1.89598 5.72779 -10.7628 
1 -1.84881 7.32976 -8.82782 
2 -3.6286 5.59615 -8.82877 
1 -3.59181 7.34749 -7.13512 
1 -1.78033 5.60954 -7.11661 
1 -0.056348 7.32922 -7.12859 
1 -0.203285 7.49954 -10.6737 
2 -0.21519 5.42753 -9.04257 
1 3.58816 7.1694 -10.6307 
1 1.71869 5.49753 -10.6335 
2 1.74054 7.30854 -8.92519 
1 3.43267 5.44117 -8.79355 
1 3.53415 7.26899 -7.10889 
1 1.60064 5.50698 -7.1222 
1 7.19033 7.16104 -10.5921 
1 5.36546 5.48828 -10.6063 
1 7.00078 5.4032 -8.93422 
1 5.26262 7.11332 -8.85548 
1 7.16307 7.08225 -7.19619 
1 5.17619 5.41558 -7.10437 
1 8.85015 5.25071 -10.6348 
1 10.5896 5.23813 -8.93154 
1 8.80232 7.15573 -8.97749 
1 8.75933 5.30746 -7.30731 
2 10.5454 7.00907 -7.16192 
1 -9.13405 8.99269 -7.00274 
1 -5.21626 9.2812 -10.4417 
1 -5.38676 10.8086 -8.5994 
1 -7.17669 9.13299 -8.76527 
1 -5.45949 9.04494 -6.92898 
1 -7.43994 10.7537 -7.19894 
2 -1.8652 9.24804 -10.4946 
2 -2.11961 10.9347 -8.69627 
1 -3.62143 10.9232 -6.97756 
1 -3.64452 9.10638 -8.63765 
1 -1.74102 9.06059 -7.05132 
1 -0.0553897 10.9108 -7.08737 
1 -0.0341284 12.1046 -9.18058 
1 -1.48448 12.7737 -7.13765 
1 0.107928 9.24372 -8.92601 
1 1.7031 9.01483 -10.7587 
1 2.10116 11.0478 -9.04608 
1 3.56918 10.771 -7.06099 
1 3.41934 9.12792 -8.86515 
1 1.67983 9.04091 -7.13458 
2 1.64767 12.5861 -7.26516 
1 5.14111 8.90946 -10.5092 
1 5.26977 10.7017 -8.77567 
1 7.45733 10.6316 -7.03626 
1 7.0112 9.04666 -8.77847 
1 5.37778 9.06292 -6.9863 
1 8.94629 8.87293 -7.19237 
2 -14.1399 3.34909 -3.54461 
2 -12.4813 3.49727 -5.32051 
1 -14.4298 0.188188 -3.4562 
1 -12.6619 0.230691 -5.21095 
1 -12.4497 1.65208 -3.43861 
2 -10.7665 1.78383 -5.42523 
1 -10.6046 3.65637 -3.57613 
1 -8.98433 3.7297 -5.35885 
2 -8.97976 1.80966 -3.46647 
2 -8.92125 0.0530061 -5.44449 
1 -7.23398 1.90224 -5.46154 
2 -7.17883 3.72175 -3.47714 
1 -5.46432 3.72306 -5.22544 
1 -5.36796 1.81447 -3.55352 
1 3.46822 3.4312 14.0329 
1 1.70986 1.60825 14.3877 
1 -3.65021 1.92199 -5.28051 
1 -1.874 3.72882 -5.38247 
1 -3.58647 3.7252 -3.62601 
1 -1.81358 1.91428 -3.64097 
1 -0.111949 1.83228 -5.41065 
1 -3.59431 0.0540056 -3.64451 
1 -0.056567 3.48389 -3.72632 
1 3.50353 1.85931 -5.42035 
2 1.67992 3.62249 -5.37235 
1 3.6073 3.58778 -3.63996 
2 1.81984 1.73452 -3.62511 
2 0.242578 3.53444 14.1354 
1 7.00066 1.774 -5.3627 
1 7.08534 3.66927 -3.57925 
1 5.33947 3.46912 -5.39204 
1 5.30265 1.8296 -3.43889 
2 -3.49209 1.77966 12.494 
1 5.25978 0.0801665 -5.31825 
1 10.6369 1.8751 -5.40285 
1 10.5674 3.43669 -3.74221 
2 8.81895 3.59682 -5.42207 
1 8.81448 1.77459 -3.60267 
1 12.4907 1.86378 -3.7847 
1 10.5108 0.0709048 -3.81546 
1 12.4346 3.55791 -5.41329 
1 8.84277 0.0568736 -5.27179 
1 14.2425 3.46742 -3.3955 
2 -1.77456 3.66566 12.4811 
1 -1.58294 1.80286 14.2439 
1 -12.6558 5.26467 -3.4616 
1 -10.914 7.28724 -3.38324 
1 -10.7829 5.51902 -5.17184 
2 -9.06986 7.22933 -5.22581 
1 -9.00249 5.45399 -3.48507 
1 -7.18325 7.20999 -3.48522 
1 -7.21157 5.46758 -5.33794 
1 -5.47397 7.22467 -5.19229 
1 -5.31086 5.39462 -3.53263 
1 -1.78705 7.24328 -5.44467 
1 -3.48659 7.21077 -3.6012 
1 -3.55843 5.53893 -5.32025 
1 -1.69543 5.444 -3.59449 
2 -0.0375276 7.24399 -3.56903 
1 -0.157311 5.33475 -5.44687 
1 1.66313 7.19911 -5.38114 
2 3.45343 7.16716 -3.59467 
1 3.54268 5.45642 -5.33991 
1 1.62418 5.36664 -3.67814 
1 7.22159 7.10879 -3.68182 
1 7.05976 5.32376 -5.3774 
2 5.41902 7.16871 -5.46418 
1 5.34274 5.313 -3.54389 
1 10.6501 7.00158 -3.57432 
1 10.7191 5.28399 -5.4579 
1 8.88075 7.21566 -5.36701 
1 8.87572 5.27948 -3.71053 
2 12.3633 5.16806 -3.56346 
1 -10.7834 8.82329 -5.13064 
1 -8.98382 10.5883 -5.29609 
1 -8.89266 9.06104 -3.42885 
1 -10.6508 10.5734 -3.42682 
1 -7.23229 10.8008 -3.54985 
1 -5.53448 10.9605 -5.30452 
1 -7.21152 8.98038 -5.23872 
1 -5.39944 9.04886 -3.5291 
1 -5.42089 12.5343 -3.3772 
1 -1.85711 10.8956 -5.33812 
1 -3.61843 10.8573 -3.51837 
2 -3.68412 9.03052 -5.26277 
1 -1.76071 9.00857 -3.51595 
1 -0.0257826 10.698 -3.54489 
1 -0.137055 9.06461 -5.35415 
1 -1.76371 12.6179 -3.41752 
1 -3.57456 12.6262 -5.13343 
1 -0.16324 12.6045 -5.15169 
2 1.7229 10.8444 -5.21669 
1 3.63349 10.8007 -3.61046 
1 3.45073 9.04373 -5.38427 
1 1.74393 8.98537 -3.60096 
1 1.65039 12.5158 -3.42264 
1 7.35105 10.7993 -3.51365 
2 5.55411 11.0032 -5.27194 
1 7.25575 8.9804 -5.31532 
2 5.47975 8.99339 -3.6756 
1 10.6547 8.87274 -5.30667 
1 9.0338 10.7233 -5.20183 
1 8.99481 8.87708 -3.56582 
1 -3.4527 14.2436 -3.27241 
1 -0.0913406 14.3858 -3.44912 
1 3.66607 12.6184 -5.35553 
2 1.61479 14.1544 -5.25825 
1 3.48142 14.3498 -3.41573 
1 5.40871 12.6043 -3.25176 
1 -14.1011 3.61284 -0.0551344 
1 -14.2123 1.84095 -1.7056 
1 -14.3994 1.81041 1.71969 
1 -12.4436 3.53152 -1.79956 
1 -3.43414 3.56594 14.3815 
1 -12.4206 1.76071 -0.0087594 
1 -12.5011 0.0135485 -1.65308 
2 -12.4669 3.3887 1.86939 
1 0.018041 1.7407 12.3657 
2 -10.7162 3.66627 0.0389614 
1 -10.7594 1.79423 -1.76611 
1 -10.6805 1.79344 1.86533 
1 -8.95913 3.60498 -1.68387 
1 -8.92347 3.59714 1.82431 
1 -9.01168 1.82009 -0.0590334 
2 -8.98269 0.00797469 1.72374 
1 -8.9638 0.0169573 -1.5641 
1 -5.26648 0.164241 -1.8235 
1 -7.27449 3.66721 0.0663034 
1 -7.1178 1.80603 -1.68982 
1 -7.17007 1.93385 1.65351 
1 -5.41836 3.70709 -1.75151 
1 -5.44389 3.62215 1.71612 
1 -5.45226 1.84955 -0.0913088 
1 -7.21695 0.14162 0.0276331 
2 -3.73267 3.65261 -0.00884479 
1 -3.63411 1.90198 -1.79291 
2 -1.81286 3.54309 -1.83244 
1 -3.67314 1.87037 1.80192 
1 -1.73828 3.63468 1.85718 
1 -1.87057 1.76434 0.140545 
1 -0.02671 3.58848 -0.00721862 
1 0.0261633 1.71883 1.75251 
1 -3.50743 0.156436 -0.0220073 
1 -1.70497 0.0506527 1.91726 
1 -0.171438 0.0299338 -0.00100607 
1 -1.98146 0.118965 -1.80631 
1 -0.151817 1.74925 -1.82564 
2 3.63703 3.50536 -0.0724237 
1 3.4515 1.74883 -1.86274 
2 1.63872 3.63138 -1.91527 
1 3.62395 1.70748 1.75564 
1 1.83307 3.56343 1.75045 
2 1.62317 1.87074 -0.0979653 
1 -5.36319 3.59241 12.634 
1 -7.01308 1.70631 12.3296 
1 5.3636 -0.00321464 1.72516 
1 7.08289 3.5792 -0.10949 
1 7.15485 1.79643 -1.96348 
1 7.11351 1.76787 1.80595 
1 5.34145 3.64394 -1.88333 
1 5.58897 3.64938 1.82639 
2 5.50283 1.68362 -0.226757 
1 8.77913 8.93577 7.29892 
1 5.41902 -0.0724266 -1.87166 
1 8.78932 0.0362197 -1.88345 
2 9.09497 0.0504657 1.79085 
1 10.7955 3.59639 0.0328583 
1 10.7247 1.88002 1.85213 
2 10.7353 1.82323 -1.8611 
1 8.80733 3.58852 -1.81908 
1 8.86344 3.51092 1.63808 
1 8.90652 1.78825 -0.00339463 
1 12.7245 3.66933 1.86376 
1 12.5369 3.5249 -1.77048 
1 12.5795 1.77071 0.0554803 
1 14.1631 3.54518 -0.16523 
2 14.2869 1.5941 -1.68617 
1 14.3877 1.94744 1.74196 
1 14.4407 0.0457486 0.292051 
1 6.81064 10.5691 7.32333 
1 -12.6225 5.44167 -0.115507 
1 -12.5924 7.13513 -1.85704 
1 -12.4585 7.04888 1.71645 
1 -10.8951 7.16207 -0.0130681 
1 -10.8353 5.37411 -1.82549 
1 -10.755 5.28587 1.84507 
1 -8.99481 7.13026 -1.71357 
2 -9.14274 7.20691 1.71044 
1 -9.0416 5.46925 -0.0636373 
1 -7.12596 7.21088 0.129274 
1 -7.24514 5.57826 -1.72796 
2 -5.32561 7.30017 -1.70441 
1 -7.30436 5.41551 1.79722 
1 -5.40294 6.95943 1.82858 
1 -5.47411 5.39256 -0.0150836 
1 -3.59945 7.18775 0.0736853 
1 -1.9153 7.28746 -1.7343 
1 -1.64257 7.19213 1.80835 
1 -3.62969 5.44238 -1.82947 
1 -3.60054 5.4582 1.85625 
2 -1.80268 5.46193 -0.00859863 
1 0.00858052 5.52943 -1.78683 
1 -0.00593809 7.3125 -0.0869067 
1 0.0665329 5.30581 1.61729 
1 3.61132 7.01895 -0.1895 
1 1.83174 7.18421 -1.75052 
2 1.86219 7.07696 1.67344 
1 3.45408 5.32785 -1.86185 
2 3.71932 5.36746 1.69769 
1 1.77 5.26453 -0.0954943 
1 7.27296 7.17232 -0.111939 
1 7.26425 5.36555 -1.86958 
2 5.48395 7.13427 -1.8603 
1 7.39011 5.44938 1.6969 
1 5.59237 7.14675 1.68461 
1 5.54031 5.45055 -0.0821184 
1 10.5935 6.95134 -0.367798 
1 10.7064 5.17147 1.74307 
1 10.5559 5.23107 -1.97404 
1 8.91905 7.04126 -1.94536 
2 9.23656 7.3084 1.77472 
1 8.90835 5.39096 -0.0595054 
2 11.9282 7.12124 1.90973 
1 12.3473 5.37531 -0.0444073 
1 12.4671 6.94477 -1.86241 
2 -8.86829 10.7607 -1.53317 
1 -9.04962 10.6731 1.50497 
2 -10.7301 8.9056 -1.55066 
1 -10.9386 8.95774 1.6401 
1 -8.95643 8.86386 0.0174887 
1 -6.97923 10.5995 0.124578 
1 -5.27682 10.683 1.89588 
1 -5.42207 10.7614 -1.81942 
1 -7.12553 8.94041 -1.75934 
1 -7.09074 8.95518 1.89679 
1 -5.29796 8.92556 0.072709 
1 -7.2099 12.5606 -1.47017 
1 -3.62031 10.6837 0.0437735 
2 -1.82007 10.7409 2.01392 
1 -1.87592 10.8183 -1.75513 
1 -3.68734 9.07583 -1.86519 
2 -3.67216 8.84226 1.92136 
1 -1.95982 8.94454 0.0265292 
2 -0.0781238 9.04314 -1.76614 
1 -3.58084 12.4525 -1.59555 
1 -1.88643 12.5014 0.142187 
1 0.014645 12.5842 -1.7176 
1 -0.0140148 10.6899 0.080009 
1 0.0213834 8.97024 1.69738 
1 3.58697 10.6268 0.0366827 
1 1.9223 10.5197 1.7184 
1 1.84568 10.7008 -1.7245 
1 3.48779 9.04694 -1.84369 
1 3.72837 8.84164 1.58397 
1 1.95678 8.88576 -0.0122754 