ITEM: TIMESTEP
1700000
ITEM: NUMBER OF ATOMS
1289
ITEM: BOX BOUNDS pp pp pp
-100 100
-100 100
-100 100
ITEM: ATOMS type x y z 
1 -1.79815 -7.0618 -12.5285 
1 -3.75724 -5.26034 -12.62 
1 -0.117578 -5.41872 -12.2065 
1 1.63952 -7.12904 -12.4763 
1 3.3559 -5.40806 -12.3806 
1 -7.27059 -1.68608 -12.3657 
2 -5.62 -3.51973 -12.2932 
1 7.28736 -1.86114 12.3046 
2 -1.81355 -1.84081 -14.3241 
2 -3.68608 -1.86147 -12.4834 
1 -1.88694 -3.63031 -12.3831 
1 -0.140483 -1.94276 -12.4063 
2 -1.84626 -0.13469 -12.4447 
2 5.47273 -3.3462 12.338 
1 -0.013322 -3.71236 -13.9884 
2 3.35578 -3.66567 -14.1668 
1 1.72297 -3.57129 -12.3248 
1 3.498 -2.04154 -12.3228 
1 1.61209 -1.88632 -14.2719 
2 3.50855 -0.152813 -14.2883 
2 1.562 -0.118955 -12.4539 
1 5.17783 -1.97173 -14.2475 
2 7.10477 -1.90456 -12.4903 
2 5.3631 -3.81243 -12.5166 
1 1.77494 -12.3661 -7.19939 
1 -9.02719 -9.03627 -6.99808 
2 -5.45557 -10.7838 -8.69582 
1 -5.5154 -9.05706 -10.7197 
1 -7.22767 -9.07692 -8.87228 
1 -5.43598 -9.05109 -6.93405 
1 -7.10526 -10.806 -6.86959 
1 -1.78148 -12.3888 -7.15348 
1 -1.75006 -10.7353 -8.88987 
1 -2.04065 -9.00879 -10.795 
1 -3.65738 -10.7233 -7.11652 
2 -3.69766 -8.96698 -8.92703 
1 -1.9848 -9.03345 -7.1457 
1 -0.0738701 -10.4588 -10.7506 
1 -0.0963862 -8.9549 -8.95175 
2 0.0483233 -10.6877 -7.15152 
1 1.81765 -9.01362 -10.8354 
2 1.86518 -10.7875 -9.11948 
1 3.59434 -10.7596 -7.11589 
2 3.58123 -8.90975 -8.98302 
1 1.75132 -8.97376 -7.2413 
1 5.34711 -10.8021 -8.65392 
1 7.18257 -8.95781 -8.89662 
1 5.38779 -8.89256 -7.19339 
1 7.19642 -10.6567 -7.13181 
1 5.40064 -8.97779 -10.5566 
1 8.97006 -8.82062 -7.20116 
1 -10.6555 -5.32269 -8.63667 
1 -8.90828 -5.34167 -10.415 
1 -8.94226 -7.25837 -8.96557 
2 -8.73533 -5.29537 -7.01595 
2 -10.5786 -7.08877 -7.11779 
1 -7.16007 -7.20754 -10.5836 
1 -5.42274 -5.44038 -10.7902 
1 -7.02882 -5.49382 -8.90082 
1 -5.44491 -7.30024 -8.89388 
2 -7.13694 -7.37136 -7.06327 
1 -5.25819 -5.53624 -7.08213 
2 -3.70733 -7.15023 -10.8578 
1 -1.91527 -5.36446 -10.6083 
1 -1.91497 -7.22195 -8.93036 
1 -3.76013 -5.43849 -9.0122 
1 -3.73953 -7.30772 -7.17304 
2 -1.98799 -5.4436 -7.15523 
2 -0.0603298 -7.28466 -7.15879 
1 -0.0567237 -7.41377 -10.754 
2 0.063929 -5.41783 -8.89679 
2 3.49701 -7.14258 -10.7521 
1 1.72788 -5.38928 -10.6057 
1 1.69773 -7.35049 -9.00997 
1 3.52484 -5.2521 -8.90996 
1 3.65244 -7.27195 -7.16977 
2 1.93694 -5.34574 -7.12928 
1 6.92255 -7.02363 -10.5747 
1 5.18916 -5.39154 -10.7185 
1 5.33038 -7.10358 -8.90314 
1 6.92856 -5.34642 -8.83766 
1 7.06305 -7.12605 -7.19522 
1 5.28101 -5.34731 -7.06237 
1 8.70602 -5.17421 -10.8674 
1 10.4961 -5.16226 -8.93793 
1 10.7198 -6.80798 -7.13554 
2 8.8992 -6.99182 -8.94025 
1 8.67897 -5.23162 -7.11283 
1 -12.5226 -1.66119 -6.92846 
1 -10.9252 -1.76597 -8.90328 
1 -9.11844 -1.71271 -10.6285 
1 -10.7465 -3.4656 -7.08305 
1 -8.96558 -3.50292 -8.94216 
1 -8.95854 -1.81955 -7.09342 
1 -10.6683 -0.069959 -7.07682 
1 -8.96838 -0.253791 -8.8638 
1 -7.3107 -3.63469 -10.7626 
1 -5.47667 -1.77742 -10.6501 
1 -7.118 -1.79547 -8.93725 
1 -5.42102 -3.61008 -9.06539 
1 -6.94207 -3.63897 -7.24966 
1 -5.30416 -1.73007 -7.11363 
1 5.34037 -0.333843 12.7418 
1 1.8222 -0.0859444 12.4724 
1 -7.25379 0.0174317 -7.17258 
1 -3.59804 -3.53327 -10.6786 
1 -1.76529 -1.78037 -10.666 
1 -3.62799 -1.76723 -8.87819 
2 -1.95525 -3.5398 -8.9113 
1 -3.78312 -3.48091 -7.14032 
1 -1.88933 -1.86754 -7.12829 
1 -0.139377 -1.8773 -8.81182 
1 -0.0855959 -3.55735 -10.6229 
1 0.0389872 -3.67489 -7.11872 
1 -3.65187 -0.0261288 -7.17749 
1 0.17471 -1.89281 12.4323 
1 3.43453 -3.62742 -10.64 
1 1.60737 -1.80154 -10.6566 
1 1.68785 -3.55484 -8.95544 
2 3.5104 -1.83523 -9.08076 
1 3.55616 -3.40954 -7.1306 
1 1.68749 -1.94291 -7.10346 
1 6.94016 -3.66485 -10.6781 
1 5.35084 -1.89091 -10.7992 
1 6.96972 -1.87855 -9.03747 
1 5.33413 -3.60756 -9.00574 
1 6.86674 -3.59131 -7.07823 
1 5.23907 -1.77284 -7.07244 
1 1.65949 -2.27666 14.4645 
1 8.77884 -1.90334 -10.7794 
1 10.6209 -3.6684 -6.99673 
1 8.65545 -3.60906 -8.82384 
2 8.68709 -1.77514 -6.96445 
2 10.5141 -1.88849 -8.98391 
2 10.4697 0.0694033 -7.08548 
1 1.84819 -3.65709 12.3945 
1 3.51511 -1.93643 12.4871 
1 12.4499 -1.74315 -7.19473 
1 -1.72128 -14.1126 -5.38902 
2 0.170122 -14.0953 -3.64933 
2 1.95682 -12.4682 -3.7154 
1 -10.8706 -8.78198 -5.16709 
1 -9.02245 -10.7367 -5.04362 
2 -8.87855 -8.94708 -3.47346 
1 -5.36083 -12.5437 -3.35264 
1 -7.17805 -10.8575 -3.37599 
1 -5.28093 -10.9869 -5.14443 
1 -7.04823 -9.09839 -5.17964 
1 -5.41294 -8.96454 -3.50002 
1 -3.73009 -12.7331 -5.21386 
1 -1.62404 -12.5088 -3.55447 
2 -1.98739 -10.9022 -5.34441 
1 -3.64361 -10.7766 -3.40139 
1 -3.65213 -8.9188 -5.32148 
2 -1.83344 -8.77419 -3.59895 
1 -0.129007 -8.95302 -5.25452 
2 0.132057 -10.7504 -3.65417 
1 3.77071 -12.4251 -5.40732 
1 0.102747 -12.5432 -5.44222 
1 1.85447 -10.6579 -5.45226 
1 3.64008 -10.6041 -3.57908 
1 3.63442 -8.91297 -5.42339 
1 1.82694 -8.89165 -3.56635 
1 5.28867 -12.4814 -3.60038 
2 7.15937 -10.7939 -3.66006 
1 5.35258 -10.6885 -5.43508 
1 7.17862 -8.91937 -5.40359 
2 5.36157 -8.86007 -3.64812 
1 9.05447 -10.5328 -5.44599 
2 8.89422 -8.92778 -3.54321 
1 10.8246 -8.59445 -5.35624 
1 -12.6215 -5.2569 -3.57722 
1 -10.7944 -6.96556 -3.42985 
1 -10.8037 -5.40726 -5.34389 
2 -8.91818 -7.17296 -5.24484 
1 -9.00213 -5.22267 -3.59782 
1 -7.1226 -7.21133 -3.43783 
1 -7.04329 -5.30667 -5.2489 
1 -5.49919 -7.13095 -5.27353 
1 -5.34467 -5.41574 -3.53363 
1 -1.8561 -7.1044 -5.39143 
1 -3.6244 -7.23025 -3.52727 
1 -3.62542 -5.52693 -5.23923 
1 -1.88825 -5.40539 -3.54372 
2 -0.0878135 -5.31426 -5.33966 
1 0.0166496 -7.16626 -3.61986 
2 1.84267 -7.23352 -5.28775 
1 3.66881 -7.15446 -3.59952 
1 3.52005 -5.26659 -5.29108 
1 1.77675 -5.42773 -3.49134 
1 7.0703 -7.08849 -3.62957 
1 5.38599 -7.09101 -5.32566 
1 6.95614 -5.36281 -5.28546 
1 5.31347 -5.3844 -3.5139 
1 10.7016 -7.00667 -3.61308 
1 10.6151 -5.34411 -5.29466 
2 8.85172 -7.01093 -5.42233 
2 8.6862 -5.30103 -3.58047 
1 12.4863 -5.14321 -3.55102 
1 -14.2553 -3.57224 -3.2636 
1 -12.7072 -3.53765 -5.31066 
2 -12.7152 -1.62452 -3.6033 
1 -10.7941 -1.76028 -5.34893 
2 -10.8533 -3.54541 -3.53824 
1 -8.87091 -3.52035 -5.38912 
2 -9.03685 -1.87201 -3.52386 
2 -7.07253 -1.88287 -5.41779 
1 -7.1949 -3.4893 -3.57345 
1 -5.29202 -3.68295 -5.37378 
1 -5.38066 -1.76262 -3.53678 
1 -3.65365 -1.83716 -5.3145 
1 -1.98579 -3.55882 -5.30188 
1 -3.60032 -3.55212 -3.56635 
1 -1.89281 -1.77086 -3.50541 
1 -0.188999 -1.80534 -5.35781 
1 -0.231443 -3.63977 -3.56485 
1 -3.59672 -0.0301635 -3.53884 
1 -1.90077 0.0648397 -5.39731 
1 -1.75015 -3.55158 12.3621 
1 1.713 -3.50161 -5.28922 
1 3.55005 -1.80299 -5.21651 
1 3.51226 -3.64884 -3.44599 
2 1.59943 -1.70126 -3.51119 
1 1.66599 -0.0066041 -5.34876 
1 6.91393 -1.80568 -5.20033 
1 6.8333 -3.54855 -3.52638 
1 5.15604 -3.54385 -5.27285 
1 5.25471 -1.76941 -3.48083 
1 10.7392 -1.77386 -5.39006 
1 10.5051 -3.51228 -3.6703 
1 8.76356 -3.56354 -5.37767 
1 8.82357 -1.74915 -3.65178 
1 12.2678 -1.66507 -3.51609 
2 12.419 -3.41371 -5.22082 
2 14.2615 0.0171097 -3.52621 
2 14.02 -3.18765 -3.21781 
2 12.595 -0.0479398 -5.32389 
1 -1.94582 -14.3574 -2.10453 
1 -3.18613 -14.2198 0.19723 
1 -1.52724 -14.138 1.72781 
1 -0.0550145 -14.4067 -0.208839 
1 -3.39298 -12.4022 1.73278 
1 1.92546 -14.2083 -1.63881 
1 3.52227 -14.2216 0.0333389 
2 1.69274 -14.1172 1.76824 
1 5.11601 -14.0811 -1.77597 
1 7.25012 -12.3334 1.6122 
1 5.20909 -12.4902 0.0702136 
2 6.92186 -12.3739 -1.78832 
1 -10.8657 -10.5052 -0.209821 
1 -10.8699 -8.83472 -1.83823 
1 -9.00047 -10.6596 -1.67606 
1 -8.99995 -8.7107 -0.0699776 
2 -10.8087 -8.7304 1.71865 
2 -9.09035 -10.8131 1.44449 
2 -7.3377 -12.5019 1.34507 
1 -5.19053 -12.8713 0.260889 
2 -7.17269 -12.3774 -1.24975 
1 -7.15767 -10.5288 0.00840854 
2 -5.2354 -10.776 -1.59009 
2 -5.35797 -10.5753 1.5624 
1 -7.10673 -8.93575 -1.66181 
1 -7.15031 -8.74553 1.61874 
1 -5.28012 -8.69363 -0.00932986 
1 -3.37423 -12.4759 -1.84729 
1 -1.67712 -12.3803 0.0702026 
1 -3.44283 -10.8364 0.013202 
1 -1.71366 -10.5312 -1.82984 
1 -1.69155 -10.6308 1.79518 
1 -3.50299 -8.95955 -1.79358 
1 -3.61187 -8.79717 1.65813 
1 -1.70573 -8.8971 0.0219423 
1 0.00253134 -12.3251 1.85557 
1 0.10163 -8.83432 1.88021 
2 -0.0314284 -12.4507 -1.69637 
1 0.131149 -10.5657 0.0502937 
1 -0.022858 -8.8639 -1.86916 
1 3.49489 -12.3163 1.70698 
2 1.79251 -12.4011 0.0335437 
1 3.50933 -12.3353 -1.70056 
1 3.5208 -10.6121 0.0135797 
1 1.83978 -10.5745 -1.74446 
1 1.72914 -10.539 1.81313 
1 3.56213 -8.84389 -1.76149 
1 3.55944 -8.82119 1.82583 
1 1.82633 -8.85466 0.025311 
1 7.06458 -10.731 -0.112019 
1 5.14333 -10.7266 -1.67358 
1 5.37621 -10.668 1.75699 
1 7.06421 -8.96702 -1.87177 
2 7.14791 -8.96183 1.70963 
1 5.38179 -8.95185 -0.048433 
1 8.82706 -10.8562 -1.95783 
1 8.90445 -12.2512 -0.122946 
1 10.9296 -8.77695 -1.7665 
1 10.9937 -9.00346 1.77233 
2 8.98115 -8.92827 -0.0662019 
1 9.03458 -10.773 1.74495 
1 -12.7064 -6.98608 -1.70342 
1 -12.5712 -5.33332 0.0848086 
2 -10.9255 -7.01443 -0.0987539 
1 -10.8123 -5.13447 -1.67146 
1 -10.7726 -5.39098 1.92789 
1 -9.0192 -7.02455 -1.8629 
1 -9.00423 -7.11672 1.54142 
1 -8.98052 -5.31171 -0.121683 
1 -7.11083 -7.07111 -0.212397 
1 -7.12207 -5.24392 -1.79656 
1 -5.27373 -7.2257 -1.80755 
2 -7.20954 -5.54825 1.70186 
1 -5.32424 -7.0966 1.65798 
1 -5.44091 -5.29066 -0.0537484 
1 -3.56877 -7.16606 -0.0350693 
1 -1.75199 -7.10654 -1.74236 
1 -1.81893 -7.22465 1.76393 
1 -3.62799 -5.41672 -1.82907 
1 -3.58055 -5.44559 1.73624 
2 -1.85696 -5.43067 0.0713108 
1 -0.110654 -5.48973 -1.90478 
1 -0.0744686 -7.17986 0.0747679 
1 -0.0678584 -5.36643 1.83989 
1 3.57807 -7.19527 0.176481 
2 1.68905 -7.11429 -1.72899 
1 1.80414 -7.16115 1.86064 
2 3.63226 -5.45495 -1.74358 
1 3.52225 -5.56987 1.8461 
1 1.64411 -5.41684 0.0771312 
1 7.26517 -7.21161 -0.0263743 
1 5.37791 -7.15903 -1.6362 
1 7.11597 -5.23451 -1.71248 
1 5.35542 -7.09127 1.7096 
2 7.25897 -5.31223 1.78163 
1 5.37605 -5.34276 0.071061 
1 10.6363 -7.17743 0.0319281 
1 10.5971 -5.33826 1.75852 
1 10.5296 -5.22093 -1.93351 
1 8.85545 -7.08797 -1.92801 
1 8.9536 -7.19094 1.61518 
1 9.02431 -5.41969 -0.0905037 
1 12.434 -7.0517 -1.86098 
1 12.487 -7.0647 1.60856 
2 12.276 -5.28571 -0.222505 
1 -14.4111 -3.4709 -0.144855 
2 -14.2829 -1.61448 -1.68992 
1 -14.3876 -1.76643 1.61939 
1 -12.5403 -1.69196 0.0311325 
1 -12.6137 -3.59456 -1.68959 
1 -12.3778 -3.51591 1.70153 
1 -10.718 -3.51306 0.0513527 
1 -10.8974 -1.80326 -1.76998 
1 -10.6491 -1.78319 1.6006 
1 -9.01007 -3.50858 -1.71901 
2 -8.93807 -3.62421 1.76879 
1 -9.00325 -1.81308 -0.0401853 
1 -1.69952 -2.025 14.0852 
1 -7.19078 -3.51392 -0.0660996 
1 -7.06557 -1.85018 -1.75666 
1 -7.17269 -1.71577 1.82932 
1 -5.38951 -3.49142 -1.85245 
2 -5.41086 -3.61837 1.80456 
2 -5.32328 -1.68855 0.0453409 
1 -3.65708 -3.60758 0.0161564 
1 -3.58836 -1.6999 -1.69022 
2 -1.88634 -3.4926 -1.74981 
2 -3.50429 -1.66175 1.85273 
1 -1.93933 -3.54854 1.79776 
1 -1.80538 -1.80864 0.00213949 
1 -0.0894415 -1.77122 -1.71194 
1 -0.045073 -1.84548 1.75424 
1 -0.0339015 -3.61136 0.020174 
1 -3.62666 -1.72715 12.4848 
2 -0.0736916 -3.9384 14.0169 
1 -5.46215 -3.52086 12.4383 
1 -7.10683 -1.80512 12.4092 
2 3.39947 -0.118101 -0.000971156 
2 3.55272 -3.63332 0.230041 
2 1.59639 -3.61325 -1.78686 
1 3.44277 -1.89443 -1.74751 
1 1.59873 -3.54871 1.83621 
1 3.43918 -1.73232 1.92922 
1 1.66381 -1.82038 -0.0448876 
1 0.0443702 -5.45573 12.2031 
1 7.16472 -3.49647 0.0631512 
1 6.9717 -1.72175 -1.85733 
1 7.13568 -1.81029 1.77751 
1 5.27339 -3.60173 -1.69294 
1 5.45492 -3.58459 1.84217 
2 5.27674 -1.78618 -0.0213594 
1 10.5616 -3.5084 0.0400885 
1 10.6843 -1.8168 1.67321 
1 10.5175 -1.81052 -1.85363 
1 8.7132 -3.57997 -1.80152 
1 9.00815 -3.54181 1.80498 
2 8.8433 -1.8179 -0.121487 
1 12.1958 -3.31576 -1.71882 
1 12.4358 -1.74257 0.025873 
2 12.5407 -3.66478 1.67255 
2 14.186 -3.56935 -0.366108 
1 14.3353 -1.38155 -1.59161 
1 14.5154 -1.8807 1.58731 
2 -5.44381 -12.4332 3.215 
2 -3.31722 -13.9351 3.45256 
1 -0.0128367 -14.1519 3.65295 
2 -3.56872 -12.4493 5.30224 
1 3.56611 -14.0197 3.40473 
1 1.79609 -12.3977 3.5429 
1 5.40069 -12.5389 3.32634 
1 -10.7685 -10.494 3.53849 
1 -10.6706 -8.84098 5.32644 
2 -8.85355 -8.89785 3.41875 
2 -8.95953 -10.6946 5.12554 
1 -7.24451 -10.8772 3.31875 
1 -5.48926 -10.8447 5.18878 
1 -7.06289 -9.09351 5.22356 
2 -5.43937 -8.85187 3.43022 
1 -1.72683 -12.2899 3.58676 
1 -1.71167 -10.6784 5.33061 
1 -3.52739 -10.7098 3.43127 
2 -3.579 -9.01609 5.29866 
1 -1.71464 -8.98918 3.49431 
1 0.0164145 -8.83346 5.39948 
2 0.153839 -12.5229 5.2932 
1 3.47109 -12.5469 5.32521 
1 0.0788609 -10.6116 3.63966 
1 1.76351 -10.6982 5.34694 
2 3.46608 -10.7256 3.63487 
1 3.46752 -8.85386 5.25947 
1 1.78092 -8.80441 3.58987 
1 7.32779 -11.0323 3.59579 
1 5.43071 -10.9889 5.38878 
2 7.29192 -8.88302 5.31457 
2 5.35048 -8.90525 3.67018 
1 9.1784 -10.5285 5.22656 
2 9.06829 -8.92232 3.38588 
2 10.7702 -8.45261 5.48481 
1 -12.658 -5.15333 3.51727 
1 -10.8401 -7.16195 3.58168 
1 -10.6056 -5.50123 5.25731 
1 -8.81676 -7.17052 5.20647 
1 -8.88059 -5.43753 3.56122 
1 -7.2069 -7.13034 3.61788 
1 -7.13004 -5.36114 5.41995 
1 -5.32009 -7.15511 5.32104 
2 -5.34941 -5.40357 3.67845 
1 -1.76967 -7.18267 5.34729 
1 -3.544 -7.19794 3.55071 
1 -3.59405 -5.45437 5.50958 
2 -1.89653 -5.46009 3.56939 
1 0.0338013 -7.18693 3.56678 
2 -0.100028 -5.41988 5.34666 
1 1.79549 -7.12293 5.32153 
1 3.54371 -7.14698 3.5627 
1 3.55172 -5.29844 5.22938 
1 1.7855 -5.44218 3.54099 
1 7.21796 -7.07702 3.40226 
1 5.4598 -7.10884 5.39113 
2 7.14007 -5.27387 5.28907 
2 5.35028 -5.40457 3.52433 
1 10.6688 -7.05362 3.41599 
1 11.0503 -5.58208 5.28894 
1 8.89964 -6.96633 5.42075 
1 9.0187 -5.3554 3.54361 
2 12.6305 -5.45529 3.44085 
1 -14.1118 -3.00088 3.50455 
1 -14.1157 -0.305607 3.66703 
1 -12.4585 -3.43797 5.28834 
1 -12.1894 -1.75383 3.38627 
1 -10.6656 -1.71869 5.3883 
1 -10.6758 -3.61775 3.68713 
1 -9.05397 -3.61181 5.46273 
2 -8.99537 -1.68682 3.59779 
1 -12.4126 -0.137966 5.36641 
1 0.145683 -6.84689 14.1508 
1 -7.31055 -1.65362 5.63381 
2 -7.17857 -3.45457 3.87658 
1 -5.42142 -3.55248 5.4652 
1 -5.50007 -1.64576 3.65539 
1 3.66511 -5.20752 12.5173 
2 -3.7117 -1.68352 5.36901 
2 -1.94134 -3.59501 5.4532 
1 -3.67838 -3.49518 3.63763 
1 -1.81801 -1.78389 3.53316 
1 -0.0831783 -1.8059 5.41801 
1 1.86758 -5.27433 14.2165 
1 -0.197112 -3.52645 3.55596 
1 1.73293 -3.54688 5.16409 
1 3.54421 -1.6584 5.28886 
1 3.45293 -3.63037 3.41668 
1 1.65408 -1.8004 3.69536 
2 1.9416 -6.95204 12.4074 
1 -1.73898 -7.03108 12.5622 
1 7.19909 -1.76976 5.37014 
1 7.1332 -3.43524 3.56047 
1 5.28636 -3.47894 5.35451 
1 5.21742 -1.85091 3.57193 
2 10.8025 -1.83961 5.19453 
1 10.8798 -3.66877 3.53198 
2 9.09341 -3.63532 5.32103 
1 8.92407 -1.86912 3.47625 
1 12.625 -3.70264 5.34762 
2 12.5571 -1.80833 3.34032 
1 14.4629 -3.60474 3.49619 
1 14.3067 -1.86513 5.1853 
2 14.3383 -0.0641919 3.27686 
1 -3.57378 -5.19664 12.5357 
1 -8.87127 -8.95415 6.87792 
1 -5.06833 -9.28118 10.4691 
1 -5.33708 -10.9225 8.58504 
1 -7.06677 -10.921 6.91138 
2 -7.02805 -8.95841 8.55668 
1 -5.37887 -9.02439 6.99003 
1 -1.65517 -12.589 6.86046 
2 -1.77366 -8.99633 10.7091 
1 -1.84085 -10.6986 8.83188 
1 -3.51432 -10.771 7.05614 
1 -3.53281 -8.99506 8.77487 
1 -1.63533 -8.739 7.11004 
1 0.0469922 -10.6159 7.0723 
1 0.0634609 -8.89521 8.91314 
1 1.76804 -12.3692 7.25981 
1 1.74769 -10.6674 8.83429 
1 3.56013 -10.6754 7.0948 
1 3.43565 -8.82766 8.85167 
1 1.77374 -8.79054 7.08921 
1 1.83491 -8.91092 10.7264 
1 7.24675 -10.7738 7.04938 
1 5.44428 -8.71199 10.5876 
1 5.2331 -10.5107 8.61109 
1 7.07643 -8.86974 8.83111 
1 5.37797 -8.85358 6.90664 
1 9.02761 -8.80459 7.16145 
2 -10.5259 -7.00911 7.10615 
1 -10.4069 -5.45786 9.23002 
1 -8.75348 -7.35 9.05135 
1 -8.78812 -5.33619 7.16744 
1 -8.59498 -5.52698 10.8611 
1 -6.79056 -7.46883 10.6763 
1 -7.17478 -5.57127 8.97916 
1 -5.32506 -7.27603 8.78658 
1 -7.22732 -7.17933 6.90071 
1 -5.47456 -5.48252 7.11855 
1 -5.39734 -5.50116 10.7347 
2 -3.51713 -7.24287 10.7465 
1 -1.89478 -5.41314 10.7654 
1 -1.79614 -7.14246 8.9766 
2 -3.66684 -5.37725 8.91444 
1 -3.51825 -7.1327 7.19177 
1 -1.82876 -5.46769 7.29489 
2 -0.0955268 -5.23483 9.05518 
1 0.0637624 -7.07004 7.25223 
1 -0.0179446 -7.12469 10.63 
1 3.78762 -7.00191 10.7097 
1 1.86689 -5.27638 10.6623 
1 1.81012 -7.13878 9.0354 
1 3.63026 -5.38922 8.87994 
1 3.66364 -7.16613 7.06221 
2 1.86303 -5.43685 7.14566 
1 6.99712 -7.00123 10.6289 
1 5.45654 -5.17907 10.7483 
1 5.28315 -7.30747 8.69926 
1 7.24459 -5.19118 8.80642 
1 7.17816 -7.09221 7.17345 
2 5.36944 -5.25759 7.11366 
1 8.85147 -5.29787 10.5345 
1 10.5557 -5.09692 8.87221 
1 10.6099 -6.95137 7.23595 
1 9.01544 -7.13187 9.04438 
1 8.90752 -5.20926 7.07774 
2 -11.9199 -1.83916 7.44949 
1 -8.9725 -1.57727 10.5614 
1 -10.9338 -2.85539 9.41261 
2 -10.8783 -4.01069 7.2408 
1 -8.75876 -3.63963 9.01449 
2 -9.25666 -1.88165 7.44842 
1 -11.0227 -0.553693 9.3694 
1 0.129401 -8.61252 12.4287 
1 -7.27085 -3.53514 10.7678 
1 -5.39016 -1.79013 10.7087 
1 -7.02652 -1.76285 8.88067 
2 -5.53163 -3.60166 8.96853 
1 -7.33263 -3.49204 7.11748 
1 -5.46658 -1.84536 7.15023 
1 -3.65958 -3.54633 10.7507 
1 -1.90008 -1.81011 10.7496 
1 -3.67496 -1.83819 8.90525 
2 -1.8702 -3.50043 8.92988 
1 -3.78728 -3.64953 7.16851 
1 -1.89397 -1.77831 7.11844 
1 0.0206477 -1.8098 8.84388 
2 12.5826 -1.50583 6.95075 
1 12.2605 0.307603 9.01947 
1 -0.0583777 -3.48803 10.8268 
2 0.227757 -3.57196 7.12431 
1 1.76997 -1.67537 7.07768 
2 3.54547 -3.42317 7.14514 
1 1.81139 -1.79399 10.7478 
1 1.90547 -3.55506 8.94272 
1 3.51825 -1.69272 8.84489 
1 3.61266 -3.50463 10.5864 
1 9.1168 -1.7981 10.6617 
1 7.27609 -3.55314 10.6222 
1 5.46397 -1.63451 7.07011 
1 7.16463 -3.30109 7.08942 
1 5.41602 -1.78589 10.525 
1 5.37631 -3.46432 8.91028 
1 7.27674 -1.73306 8.98544 
1 7.30222 -0.0874217 10.7097 
1 10.882 -3.58057 6.95867 
2 10.8422 -1.87436 8.77072 
1 8.90069 -3.44218 8.79352 
1 9.01331 -1.73545 7.09942 
2 -0.0252435 -0.0707208 -14.4391 
1 -0.1751 -0.137911 -7.14918 
1 -1.85856 0.0364483 -8.97768 
2 1.7146 -0.0261828 -8.87274 
2 6.8588 -0.0539801 -7.06839 
1 -10.8157 -0.0151201 -3.67946 
2 -8.97468 0.0882292 -5.38098 
1 10.743 0.0749413 -3.7166 
1 -14.2308 0.166882 0.122783 
1 -12.3689 0.0350448 -1.73899 
1 -10.6401 0.111044 -0.0985382 
1 1.58988 0.0789177 -1.71556 
1 6.99665 0.00643134 -0.0278061 
1 -3.47571 -0.0835411 14.2168 
1 8.82253 0.0177443 -1.8741 
2 8.83465 0.0162831 1.67669 
1 14.44 0.11375 0.232873 
1 -10.6055 0.145287 3.73868 
1 -7.12698 0.0033111 10.6247 
1 -3.65911 -0.19015 10.6919 
1 -5.39855 -0.118646 12.4896 
1 1.72659 -0.0683959 8.91691 
1 3.7118 -0.141738 10.7855 
1 7.2073 0.0319973 7.10215 
1 5.52795 -0.0785962 8.89089 
1 -7.3132 1.65224 -12.3419 
1 -5.49438 3.47941 -12.6602 
2 -1.80408 1.67327 -14.5345 
2 -3.61886 1.73789 -12.631 
1 -1.86015 3.53579 -12.5526 
2 -0.110999 1.85258 -12.5372 
1 -0.0911289 3.71305 -14.3319 
1 1.97794 4.98947 14.2631 
1 3.51827 3.55228 -14.4571 
1 3.42467 1.68285 -12.6082 
2 1.73468 3.56769 -12.581 
1 1.76278 1.79829 -14.482 
1 5.19556 1.49247 -14.4224 
1 6.98878 1.72215 -12.604 
1 5.26813 3.51548 -12.5871 
2 5.3123 -0.0929529 -12.4756 
1 -1.6438 7.08886 -12.5307 
1 -3.6413 5.03595 -12.4909 
1 -0.215164 5.24922 -12.6248 
1 1.68592 6.97152 -12.4938 
1 3.45383 5.28753 -12.5198 
1 -12.1801 2.05442 -7.49125 
1 -11.1366 3.23386 -9.41431 
1 -9.23535 1.75637 -10.4004 
2 -8.84184 3.84488 -8.89221 
2 -9.17903 1.93342 -7.46059 
1 -10.6922 4.04549 -7.17308 
1 -11.1077 0.686663 -9.16397 
1 -7.15381 3.55807 -10.7655 
2 -5.32912 1.77545 -10.7223 
2 -7.16183 1.80319 -8.90023 
1 -5.45396 3.68975 -8.88588 
1 -7.18884 3.7515 -6.91452 
2 -5.53176 1.85181 -7.10065 
1 -3.66218 3.55886 -10.6563 
1 -1.95417 1.83724 -10.7491 
1 -3.69621 1.7069 -8.91583 
2 -1.82876 3.51684 -8.8883 
2 -3.75184 3.63881 -7.04172 
1 -1.93363 1.82073 -6.99909 
1 -0.0976185 3.50951 -7.07664 
1 -0.0831532 1.63153 -8.79353 
1 3.59016 5.127 12.516 
1 -0.0843577 3.52456 -10.7258 
1 1.96456 6.86941 12.8081 
1 -3.62481 0.0531369 -10.7468 
1 3.66334 3.51696 -10.6628 
1 1.77481 1.85714 -10.6514 
1 3.5096 1.86726 -8.9607 
2 1.68499 3.50012 -8.90428 
1 3.5937 3.53987 -7.13508 
2 1.82836 1.64508 -7.02321 
1 3.62933 -0.0113711 -7.13772 
1 3.47717 -0.069264 -10.8127 
1 -3.4978 5.26664 12.5614 
2 6.94066 3.43504 -10.7391 
1 5.19881 1.81241 -10.7941 
1 7.1328 1.81403 -8.834 
1 5.27548 3.50031 -8.74668 
1 7.04922 3.47896 -7.11621 
1 5.21102 1.73461 -7.11386 
1 -1.5132 6.94003 12.4442 
2 5.28915 0.0212626 -9.04206 
1 8.9182 2.12435 -10.6968 
2 10.4731 1.95609 -8.88499 
1 8.75048 3.62695 -8.80651 
1 8.70435 1.75862 -6.95857 
1 10.665 3.64772 -7.14518 
2 12.3507 1.94352 -7.12954 
1 -10.6273 5.62044 -9.18798 
1 -10.6884 7.0845 -7.24471 
1 -8.81707 7.29427 -9.17546 
1 -8.86376 5.59555 -7.20839 
1 -8.63155 5.4783 -10.81 
2 -5.5428 5.33667 -10.81 
1 -6.93556 7.39896 -10.6616 
1 -7.03419 5.59798 -8.94661 
1 -5.34059 7.28599 -8.8345 
2 -7.16399 7.35042 -7.17693 
1 -5.45254 5.5148 -7.1003 
2 -3.59436 7.05122 -10.7622 
1 -1.78569 5.20361 -10.7723 
1 -1.76499 7.13622 -8.88219 
2 -3.65517 5.36606 -8.98007 
1 -3.53259 7.24961 -6.99779 
1 -1.82923 5.43342 -7.02308 
2 -0.142224 5.31975 -8.81491 
1 -0.0211828 7.0025 -10.7453 
1 -0.0370393 7.19743 -7.14351 
1 3.48791 7.0999 -10.7351 
1 1.64857 5.31112 -10.7369 
2 1.74608 7.13699 -8.87883 
1 3.56273 5.31345 -8.94076 
1 3.54916 7.13965 -7.08995 
1 1.72799 5.40695 -7.08632 
1 6.99897 7.1131 -10.429 
1 5.31853 5.27929 -10.6286 
1 7.0332 5.37218 -8.71653 
1 5.26666 7.02508 -8.85375 
1 7.099 7.18725 -7.09637 
1 5.20238 5.34762 -7.05427 
1 8.78225 5.2367 -10.5617 
1 10.6864 5.14654 -8.88234 
1 8.85358 7.06453 -8.95117 
1 8.7635 5.3705 -7.04827 
2 10.7313 6.96947 -7.16005 
1 -8.94868 9.11888 -7.16469 
1 -5.18375 9.00883 -10.8219 
1 -5.18502 10.6997 -8.97574 
1 -7.09854 9.13135 -9.03538 
1 -5.27782 9.07142 -7.06879 
1 -7.05883 10.6875 -7.00739 
2 -1.81463 8.69871 -10.6125 
2 -1.85223 10.6671 -8.86682 
1 -3.55896 10.7148 -7.09526 
1 -3.59022 8.82349 -8.89031 
1 -1.75033 9.03085 -7.12865 
1 -0.0702621 12.4002 -8.71199 
1 0.0182856 8.97716 -8.82387 
1 -1.78112 12.5755 -7.07357 
1 0.0327316 10.7641 -7.15897 
1 1.57876 8.82297 -10.7103 
1 1.73192 10.592 -8.82685 
1 3.54648 10.8483 -7.1678 
1 3.42631 8.89515 -8.83983 
1 1.85036 8.91747 -7.02531 
2 1.87043 12.6058 -7.22194 
1 5.17978 8.87513 -10.425 
1 5.32131 10.7947 -8.70096 
1 7.33413 10.6413 -7.07096 
1 7.14107 8.99291 -8.77007 
1 5.32627 8.9872 -7.25382 
1 9.01889 8.74697 -7.15237 
2 -13.9786 3.41451 -3.39801 
1 -12.5714 0.439978 -5.36998 
1 -14.3387 0.143015 -3.55453 
2 -12.4757 3.68121 -5.44689 
1 -12.3498 1.72586 -3.35926 
2 -10.7009 2.02724 -5.36129 
1 -10.7987 3.61285 -3.56359 
1 -8.97217 3.89614 -5.37572 
2 -8.92456 1.9146 -3.41987 
1 0.143893 5.21688 12.5277 
1 5.48322 3.28495 12.6147 
1 -7.24603 1.95345 -5.356 
2 -7.16981 3.74188 -3.45416 
1 -5.45939 3.7351 -5.27634 
1 -5.28641 1.955 -3.54249 
2 -7.12318 0.17673 -3.54508 
1 -5.35305 0.0331691 -5.29807 
1 -3.70044 1.82972 -5.32031 
1 -1.77747 3.57293 -5.32453 
1 -3.6235 3.71205 -3.5938 
1 -1.99222 1.81092 -3.61329 
1 -0.095304 3.5199 -3.62409 
1 -0.142463 1.65957 -5.34162 
1 3.57009 1.63121 -5.34112 
2 1.78746 3.52319 -5.41635 
1 3.49031 3.60013 -3.47327 
2 1.66733 1.70528 -3.58313 
1 3.47316 0.0033095 -3.38382 
1 5.2766 -0.0150815 -5.14751 
1 6.85387 1.74321 -5.27497 
1 7.02813 3.58909 -3.53802 
1 5.23407 3.39596 -5.28612 
1 5.21605 1.73447 -3.5246 
1 7.13189 -0.0576243 -3.45806 
1 7.21675 1.3635 12.5363 
1 10.6606 1.93372 -5.29065 
1 10.6793 3.70545 -3.686 
2 8.85976 3.5897 -5.3618 
1 8.75413 1.76353 -3.68625 
1 12.538 1.93217 -3.6718 
1 8.78117 0.0874972 -5.22462 
1 12.5567 3.8771 -5.48755 
1 14.1569 3.66804 -3.49205 
1 -12.453 5.29397 -3.54541 
1 -10.8576 7.26119 -3.62767 
1 -10.7639 5.6032 -5.36441 
2 -8.97245 7.31189 -5.39604 
1 -9.07641 5.57644 -3.545 
1 -7.17907 7.24524 -3.48926 
1 -7.23241 5.53431 -5.25478 
1 -5.31019 7.27582 -5.29057 
1 -5.33828 5.58809 -3.61619 
1 -1.67764 7.29068 -5.32261 
1 -3.62031 7.31717 -3.63 
1 -3.53786 5.47687 -5.31 
1 -1.91982 5.41567 -3.53055 
1 -0.140837 5.34564 -5.36152 
2 -0.0316349 7.18257 -3.4927 
1 1.72229 7.1269 -5.4307 
2 3.44519 7.08942 -3.54498 
1 3.39701 5.39917 -5.47 
1 1.63648 5.30413 -3.60227 
1 7.14312 7.20995 -3.61669 
1 7.11107 5.39965 -5.44467 
2 5.28007 7.17504 -5.36558 
1 5.3875 5.29922 -3.67483 
1 10.5201 7.04235 -3.43478 
1 10.6759 5.42731 -5.43898 
1 8.89101 7.17082 -5.24932 
1 8.75655 5.34524 -3.56678 
2 12.2979 5.4299 -3.54815 
1 -10.7846 8.94582 -5.39696 
1 -8.96175 10.6389 -5.29748 
1 -8.99699 8.94394 -3.43219 
1 -10.6213 10.6161 -3.44405 
1 -7.3336 10.725 -3.45518 
1 -5.35695 10.7123 -5.25628 
1 -7.12515 9.00607 -5.19386 
1 -5.37402 8.96579 -3.44949 
1 -1.71556 10.7466 -5.34301 
1 -3.57386 10.7822 -3.44656 
2 -3.53343 9.00862 -5.28712 
1 -1.65077 9.03424 -3.46064 
1 0.0297378 12.4506 -5.37351 
1 -1.63318 12.4693 -3.58487 
1 0.0440596 10.712 -3.4762 
1 -3.61094 12.3358 -5.32464 
1 0.0421256 9.06617 -5.44128 
2 1.84363 10.7718 -5.30222 
1 3.53172 10.8919 -3.56569 
1 3.52468 9.03681 -5.41984 
1 1.82975 8.90121 -3.52843 
1 1.6779 12.418 -3.39926 
1 3.69184 12.6294 -5.31852 
1 7.18692 10.776 -3.56505 
2 5.46613 10.8503 -5.51157 
1 7.25798 8.92851 -5.38118 
2 5.40218 9.13674 -3.66197 
1 5.52081 12.6869 -3.54594 
1 10.9309 8.46362 -5.29043 
1 9.03591 10.4386 -5.43269 
1 8.977 8.96166 -3.59026 
1 -5.45591 12.5364 -3.62503 
1 -3.5138 14.2365 -3.56439 
1 -0.0883871 14.2522 -3.62393 
2 1.84649 14.1113 -5.02947 
1 3.76427 14.341 -3.44541 
1 0.195443 -0.272977 14.2563 
1 -14.4246 3.41457 -0.123373 
1 -14.3135 1.59871 -1.68748 
1 -14.2469 1.71522 1.93328 
1 -12.4578 3.51985 -1.65832 
1 1.86644 1.64995 14.2801 
2 -12.6967 3.70621 1.73503 
1 -12.3813 1.84277 -0.059757 
2 -10.7031 3.7225 0.0502334 
1 -10.6467 1.81653 -1.69806 
1 -10.7463 1.89326 1.77259 
1 -8.87179 3.78886 -1.69863 
1 -8.96127 3.67489 1.81251 
1 -8.91344 2.05636 -0.0106229 
2 -8.95428 0.169468 1.77975 
1 -9.07512 0.00229492 -1.74145 
1 1.76154 3.34092 12.4756 
1 -5.39389 0.036409 -1.81271 
1 -7.14208 3.7394 0.0540867 
1 -7.10168 1.78774 -1.6735 
1 -7.26753 1.90679 1.78752 
1 -5.45018 3.77982 -1.72272 
1 -5.40718 3.55335 1.82617 
1 -5.51689 1.84035 0.0851972 
1 -7.29458 0.00848768 -0.00959854 
2 -5.49254 0.164022 1.75664 
2 -3.71543 3.62381 -0.00291965 
1 -3.8187 1.83047 -1.77716 
2 -1.75433 3.55995 -1.84197 
1 -3.44762 1.78425 1.84095 
1 -1.84585 3.63062 1.7153 
1 -1.80666 1.82331 0.0734094 
1 -0.0854296 1.66719 -1.73527 
1 -0.131262 1.65925 1.71139 
1 -0.0557107 3.60124 0.129441 
1 3.65984 1.75312 12.6247 
2 3.49271 3.69803 0.0419088 
1 3.48903 1.7779 -1.77553 
2 1.55239 3.61534 -1.70451 
1 3.58849 1.90895 1.8929 
1 1.81853 3.75104 1.82604 
2 1.67976 1.70689 0.12416 
2 0.0954031 3.40251 14.3158 
1 5.26737 0.0786227 -1.78028 
1 6.99864 3.5535 0.0663255 
1 7.03756 1.83456 -1.78459 
1 6.97999 1.84818 1.80232 
1 5.17696 3.67644 -1.78842 
1 5.36553 3.69839 1.96285 
2 5.28068 1.74305 -0.00905554 
1 5.33901 -0.0655166 1.88487 
2 12.3808 0.0545436 -1.70791 
1 10.5944 3.69798 0.0162502 
1 10.6481 1.92006 1.69877 
2 10.5752 1.87308 -2.02016 
1 8.77608 3.54672 -1.87509 
1 8.84054 3.59703 1.73753 
1 8.70708 1.78954 0.00943241 
1 12.341 3.71139 -1.6778 
1 0.00507731 1.67619 12.4497 
1 10.5532 0.0114012 -0.135958 
1 12.558 3.70978 1.79123 
2 -3.52327 1.6626 12.4872 
1 12.4883 1.89767 0.0593834 
1 12.5362 0.21217 1.60445 
1 14.2089 3.64014 -0.156747 
2 14.1405 1.76791 -1.68262 
1 14.4814 1.95695 1.83107 
1 -1.59557 1.55462 14.2597 
1 -12.7641 5.25394 -0.163524 
1 -12.7173 7.04893 -1.75121 
1 -12.5339 7.00307 1.61398 
1 -10.8078 7.04023 -0.0482447 
1 -10.8577 5.48211 -1.83837 
1 -10.7311 5.49065 1.79243 
1 -9.09017 7.07378 -1.73181 
2 -8.98231 7.2465 1.79232 
1 -8.93659 5.48011 -0.0364667 
1 -7.21061 7.29786 0.139045 
1 -7.15504 5.63101 -1.69278 
2 -5.2951 7.2606 -1.70367 
1 -7.09235 5.41388 1.83609 
1 -5.41386 7.21809 1.75095 
1 -5.31185 5.46366 0.165537 
1 -3.5768 7.28446 0.0970617 
1 -1.84191 7.3288 -1.71969 
1 -1.77755 7.15919 1.88364 
1 -3.67189 5.51201 -1.83403 
1 -3.65509 5.4364 1.85899 
2 -1.88226 5.40015 0.00756936 
1 -0.0476984 5.66468 -1.72929 
1 -0.0727813 7.26566 0.114411 
1 -0.0554248 5.36135 1.91829 
1 3.5434 7.07896 0.0124081 
1 1.79952 7.36124 -1.69853 
2 1.75452 7.11198 1.84663 
1 3.49558 5.42689 -1.66586 
2 3.55097 5.41605 1.99344 
1 1.61237 5.44856 0.00982861 
1 7.08979 7.2222 -0.0352289 
1 7.01325 5.28317 -1.76514 
2 5.40588 7.14048 -1.8132 
1 7.25413 5.44447 1.80776 
1 5.43763 7.21173 1.88296 
1 5.44762 5.43318 0.209324 
1 10.5137 7.02538 -0.229007 
1 10.4597 5.42735 1.76571 
1 10.5479 5.28803 -1.72558 
1 8.79919 7.11321 -1.85161 
2 9.14767 7.5946 1.87032 
1 8.77246 5.38529 -0.0575789 
2 12.0415 7.32097 1.88218 
1 12.3513 7.32186 -1.6916 
1 12.3933 5.51659 0.14252 
2 -8.96163 10.6595 -1.55421 
1 -8.9603 10.8453 1.44916 
2 -10.851 8.72527 -1.72963 
1 -10.8235 8.89919 1.58751 
1 -9.00864 8.92777 0.0625464 
1 -7.11254 10.8257 -0.00725472 
1 -5.36664 10.8085 1.80505 
1 -5.43588 10.7072 -1.78297 
1 -7.19165 8.93983 -1.55704 
1 -7.26556 9.11568 1.80514 
1 -5.41638 9.07096 0.0744779 
2 -5.3907 12.6213 0.00140591 
1 -3.6196 10.8299 -0.0307105 
2 -1.76058 10.801 1.89594 
1 -1.79299 10.7416 -1.80764 
1 -3.5825 9.07388 -1.64228 
2 -3.71827 9.03122 1.80003 
1 -1.88816 9.00774 -0.0308532 
1 -3.56332 12.5291 -1.83103 
1 -1.79886 12.4387 0.0804151 
2 0.00108752 9.05071 -1.68558 
1 -0.0773165 10.738 0.0716323 
1 -0.0423112 12.3655 -1.61713 
1 -0.0381072 8.9426 1.87626 
1 3.53299 10.7532 0.107936 
1 1.66383 10.7841 1.82411 
1 1.80358 10.6835 -1.73228 
1 3.55811 8.9507 -1.78921 
1 3.57617 8.895 1.83515 
1 1.82957 8.99794 0.13805 
1 7.2081 10.6823 0.1151 
1 5.23671 10.7754 1.94974 
2 5.38886 10.8897 -1.68189 
1 7.16989 8.9677 -1.86662 
1 6.94954 9.06616 1.99213 
2 5.26969 9.01711 0.0789821 
2 7.26986 12.1287 1.92207 
1 7.27159 12.5474 -1.55907 
1 10.606 8.93507 -1.87892 
2 11.0468 9.20046 0.494936 
2 9.20734 10.5383 1.60963 
1 8.82459 10.6557 -1.76138 
1 8.69063 8.86791 -0.157632 
1 -7.23318 12.6367 1.76003 
1 -7.2972 12.532 -1.74675 
2 -5.27369 14.231 -1.89653 