ITEM: TIMESTEP
1010000
ITEM: NUMBER OF ATOMS
1289
ITEM: BOX BOUNDS pp pp pp
-100 100
-100 100
-100 100
ITEM: ATOMS type x y z 
1 -1.72045 -7.10255 -12.4133 
1 -3.63113 -5.45278 -12.642 
1 -0.0117939 -5.26679 -12.3677 
1 1.46758 -7.03759 -12.5594 
1 3.34731 -5.41092 -12.525 
1 -7.14377 -1.65901 -12.5637 
2 -5.39814 -3.61927 -12.5164 
2 5.18067 -3.50231 12.4252 
2 -1.80645 -1.97494 -14.3974 
2 -3.65545 -1.96033 -12.709 
1 -1.83075 -3.64544 -12.535 
1 -0.103228 -1.81977 -12.5272 
1 7.01954 -1.76152 12.3945 
2 -0.0776711 -3.7697 13.9052 
1 -0.146528 -3.62371 -14.4082 
2 3.56239 -3.51919 -14.219 
1 1.52895 -3.51022 -12.577 
1 3.38969 -1.81571 -12.3858 
1 1.61842 -2.00237 -14.4994 
2 1.58238 -0.0802298 -12.4747 
1 0.0157282 -1.77303 12.4365 
1 5.28216 -1.76329 -14.3133 
2 7.03894 -1.78588 -12.4854 
2 5.31498 -3.56492 -12.4247 
1 3.44233 -1.79221 12.4919 
1 -1.98803 -12.5536 -7.09447 
1 -9.0771 -8.91303 -7.18931 
2 -5.42339 -10.5436 -8.65503 
1 -5.50701 -8.97107 -10.5801 
1 -7.13095 -10.736 -6.84183 
1 -7.31822 -8.96195 -8.87808 
1 -5.41066 -8.98452 -6.80498 
1 -2.06482 -10.789 -8.89968 
1 -1.91872 -8.82456 -10.6811 
1 -3.57407 -10.8428 -6.93741 
2 -3.59365 -8.93592 -8.79227 
1 -2.01053 -9.02627 -6.94608 
1 -0.179688 -10.5998 -10.4343 
2 -0.257239 -10.7562 -7.10883 
1 -0.151134 -8.93896 -8.97718 
1 1.58871 -12.5109 -7.37208 
2 1.65235 -10.6587 -8.97226 
1 1.69954 -8.99357 -10.9401 
1 3.44268 -10.5876 -7.23637 
2 3.45012 -8.8619 -9.04881 
1 1.67096 -8.98943 -7.26059 
1 5.23397 -10.7332 -8.97744 
1 6.93493 -8.86293 -9.01593 
1 5.12884 -8.91772 -7.12942 
1 6.92745 -10.694 -7.27207 
1 5.33582 -8.67219 -10.6998 
1 8.8239 -9.0093 -7.27187 
1 -10.7456 -5.25176 -8.91255 
1 -8.98172 -5.15584 -10.4655 
1 -9.00204 -7.09124 -8.78868 
2 -8.887 -5.16008 -7.0537 
2 -10.7467 -6.97281 -7.09696 
1 -7.13747 -6.98682 -10.4796 
1 -5.32462 -5.29498 -10.636 
1 -7.14268 -5.36892 -8.81078 
1 -5.37681 -7.17335 -8.85826 
2 -7.14535 -7.14787 -7.07685 
1 -5.22859 -5.43196 -7.08855 
2 -3.73561 -7.17757 -10.7171 
1 -1.98725 -5.33031 -10.7394 
1 -1.83181 -7.10609 -8.89797 
1 -3.58755 -5.40294 -8.96275 
1 -3.7284 -7.20214 -7.12005 
2 -1.93194 -5.29032 -7.07944 
2 0.0136981 -5.32162 -9.00357 
2 -0.0729337 -7.23076 -7.07623 
1 -0.184452 -7.30743 -10.7303 
2 3.49306 -7.12283 -10.7816 
1 1.73811 -5.37983 -10.6518 
1 1.64468 -7.17885 -9.06579 
1 3.56975 -5.31376 -9.02521 
1 3.45541 -7.04886 -7.16419 
2 1.80275 -5.23539 -7.16565 
1 7.02576 -6.91867 -10.8725 
1 5.17763 -5.4114 -10.7282 
1 5.30615 -6.95248 -8.79961 
1 7.07184 -5.36363 -8.95828 
1 7.00725 -7.03222 -7.23231 
1 5.26272 -5.21634 -7.18027 
1 8.87175 -5.23116 -10.716 
1 10.6699 -5.04707 -8.95918 
1 10.4597 -7.11104 -7.37902 
2 8.79831 -7.04489 -9.04033 
1 8.83024 -5.17816 -7.06767 
1 -12.5441 -1.6523 -6.92817 
1 -10.848 -1.76368 -8.79479 
1 -8.83361 -1.74796 -10.5956 
1 -10.9158 -3.52682 -7.17763 
1 -9.00681 -3.46466 -8.80959 
1 -8.9324 -1.92948 -6.98394 
1 -8.97906 -0.174639 -8.69158 
1 -10.7287 0.0802202 -7.08309 
1 -7.2168 -3.53895 -10.724 
1 -5.35677 -1.85491 -10.7267 
1 -7.1912 -1.86435 -8.73448 
1 -5.43868 -3.60058 -9.0103 
1 -6.99776 -3.60241 -7.09729 
1 -5.29573 -1.75762 -7.26055 
1 -7.13358 -0.281387 -10.6272 
1 -7.0087 -0.00437866 -7.11473 
1 -5.45963 0.0195469 -8.9733 
1 -3.62375 -3.53246 -10.7281 
1 -1.92624 -1.78171 -10.6885 
1 -3.54864 -1.72812 -8.93873 
2 -1.76025 -3.56512 -8.95833 
1 -3.65518 -3.48644 -7.20311 
1 -1.90897 -1.66202 -7.11645 
1 -0.076577 -3.4831 -10.7069 
1 -0.124538 -1.70089 -8.90639 
1 1.74387 -3.59307 12.1792 
1 0.0326678 -3.4882 -7.11057 
1 -0.203005 0.0670696 -7.26027 
1 3.41661 -3.5638 -10.6474 
1 1.62165 -1.81876 -10.7835 
1 1.68414 -3.44904 -8.88267 
2 3.53823 -1.81523 -8.86672 
1 3.56588 -3.46553 -7.11676 
1 1.70795 -1.65353 -7.10773 
1 1.67328 -1.9957 14.2603 
1 0.0453456 -0.101955 14.3102 
1 -3.57123 0.0849449 14.2447 
1 7.11033 -3.54407 -10.6595 
1 5.1982 -1.8093 -10.7002 
1 7.17368 -1.69561 -9.0817 
1 5.2639 -3.52546 -8.98887 
1 7.03874 -3.49511 -7.20907 
1 5.40647 -1.70132 -7.18052 
1 8.83742 -1.93051 -10.9205 
1 10.7564 -3.46885 -7.20329 
1 8.85012 -3.59757 -8.91344 
2 8.83683 -1.79444 -7.04011 
2 10.5609 -1.77457 -8.91945 
1 12.54 -1.8307 -7.3063 
1 -1.77362 -0.117911 12.4495 
1 -5.33566 -12.6655 -3.21096 
1 -1.54767 -14.1183 -5.25512 
1 -3.62183 -12.5576 -5.08775 
1 -1.66692 -12.559 -3.30876 
2 0.120714 -14.1165 -3.38003 
1 0.291923 -12.6696 -5.30103 
2 2.079 -12.5442 -3.56338 
1 -10.5874 -8.91608 -5.20883 
1 -8.81238 -10.5086 -4.95218 
2 -8.88189 -8.79251 -3.24427 
1 -7.14899 -10.6514 -3.29402 
1 -5.39946 -10.854 -5.06887 
1 -7.11459 -8.87297 -5.17293 
1 -5.43634 -8.95344 -3.512 
2 -1.77416 -10.9891 -5.22767 
1 -3.62663 -10.7973 -3.32217 
1 -3.6288 -8.9746 -5.22312 
2 -1.82147 -8.95333 -3.52758 
1 0.0756554 -9.04327 -5.29428 
2 0.266261 -10.7655 -3.47509 
1 3.58138 -12.5108 -5.6818 
1 1.80337 -10.6652 -5.57551 
1 3.54269 -10.616 -3.66639 
1 3.4592 -8.97452 -5.40968 
1 1.91808 -8.87021 -3.5252 
1 5.21039 -12.5696 -3.70774 
2 6.76032 -10.7616 -3.65138 
1 5.21828 -10.8692 -5.58669 
1 6.8932 -8.83993 -5.52163 
2 5.33608 -8.80421 -3.64957 
1 8.56745 -10.7273 -5.23332 
2 8.71219 -8.91896 -3.58814 
1 10.4455 -8.8022 -5.44049 
1 -12.7175 -5.36839 -3.53444 
1 -10.8725 -7.00029 -3.54769 
1 -10.8559 -5.3889 -5.3375 
2 -8.89642 -7.0969 -5.26328 
1 -8.93794 -5.42866 -3.50419 
1 -7.03733 -7.00502 -3.38323 
1 -7.09902 -5.28575 -5.33012 
1 -5.33575 -7.07282 -5.1505 
1 -5.3164 -5.21741 -3.4587 
1 -1.91467 -7.16698 -5.33185 
1 -3.64965 -7.11639 -3.44082 
1 -3.6051 -5.2667 -5.28851 
1 -1.91436 -5.41261 -3.51195 
2 -0.247179 -5.26888 -5.31129 
1 -0.138151 -7.1343 -3.48959 
2 1.73323 -7.16288 -5.27394 
1 3.59596 -7.17982 -3.66346 
1 3.64185 -5.273 -5.30053 
1 1.72755 -5.31625 -3.74476 
1 7.05698 -7.0038 -3.61103 
1 5.34065 -7.00856 -5.46743 
1 7.02434 -5.20324 -5.44576 
1 5.39779 -5.36659 -3.50199 
1 10.7339 -7.2476 -3.6211 
1 10.8644 -5.30558 -5.39162 
2 8.69548 -7.1027 -5.5077 
2 8.98367 -5.28263 -3.70962 
1 12.4532 -5.20692 -3.43331 
1 -14.3477 -3.48362 -3.49862 
2 -12.5292 -1.74291 -3.59706 
1 -12.6091 -3.59513 -5.42814 
1 -10.8297 -1.74479 -5.3274 
2 -10.8547 -3.6941 -3.44354 
1 -9.2477 -3.42601 -5.17425 
2 -8.98141 -1.74223 -3.36223 
2 -7.18138 -1.90101 -5.32815 
1 -7.25157 -3.59121 -3.53404 
1 -5.29622 -3.56928 -5.38496 
1 -5.30913 -1.74248 -3.45725 
1 -3.77483 -1.7554 -5.41806 
1 -1.89817 -3.37902 -5.34935 
1 -3.57284 -3.50093 -3.66104 
1 -1.99436 -1.69497 -3.63378 
1 -0.220767 -1.54879 -5.37554 
1 -0.0724172 -3.4984 -3.65256 
1 -3.71439 -1.74512 12.4641 
1 1.77397 -3.42138 -5.3521 
1 3.59194 -1.72961 -5.29631 
1 3.47657 -3.49278 -3.54884 
2 1.66577 -1.64805 -3.58794 
1 -2.0159 -1.83994 14.1756 
1 7.09432 -1.65511 -5.30095 
1 7.01 -3.40468 -3.63677 
1 5.25988 -3.55141 -5.36528 
1 5.31634 -1.64747 -3.47544 
1 -1.97427 -3.60254 12.33 
1 10.584 -1.69974 -5.21673 
1 10.6594 -3.45876 -3.6532 
1 8.94604 -3.58875 -5.38506 
1 8.87914 -1.66497 -3.58578 
1 12.2519 -1.61223 -3.53603 
2 12.6134 -0.00336647 -5.43742 
2 12.495 -3.20832 -5.25634 
2 14.1227 -3.18866 -3.15482 
2 14.1576 -0.0507435 -3.5276 
1 -5.11142 -12.7823 0.174936 
2 -7.07354 -12.4004 -1.31195 
1 -3.35041 -14.5013 0.608973 
1 -1.59081 -14.472 -1.35466 
1 -1.08595 -14.2421 1.52827 
1 -1.62747 -12.375 0.0736918 
1 0.653842 -14.7663 -0.372357 
1 2.37258 -14.4631 -2.0407 
1 3.47176 -14.3231 0.232308 
2 1.53206 -14.3163 1.89543 
1 4.95971 -14.1723 -1.81967 
1 -10.7474 -10.4191 0.102862 
1 -10.9502 -8.95166 -1.99746 
1 -8.87178 -10.6565 -1.50771 
2 -8.79919 -10.6811 1.62234 
1 -8.96225 -8.71655 -0.115371 
2 -10.7498 -8.83844 1.93121 
2 -7.16337 -12.4962 1.48901 
1 -7.07204 -10.3332 0.0347461 
2 -5.36633 -10.6759 -1.57097 
2 -5.2421 -10.6627 1.61083 
1 -7.02209 -8.59906 -1.61833 
1 -7.04399 -8.69843 1.80214 
1 -5.2964 -8.72106 0.112197 
1 -3.49439 -12.699 -1.52997 
1 -3.26879 -12.2846 1.66619 
1 -3.4663 -10.6677 -0.0837261 
1 -1.70002 -10.7322 -1.79917 
1 -1.66619 -10.5217 1.74474 
1 -3.59412 -8.84171 -1.70074 
1 -3.38212 -8.78801 1.73239 
1 -1.72624 -8.86108 0.0090169 
1 -0.0563414 -8.9762 -1.72812 
2 0.145305 -12.5008 -1.55394 
1 0.138613 -10.5033 -0.00065172 
2 1.97623 -12.4048 -0.0515524 
1 0.104511 -12.2543 1.77296 
1 0.0430193 -8.84723 1.82598 
1 3.57751 -12.4643 1.76472 
1 3.70566 -12.2899 -1.83072 
1 3.57107 -10.6288 0.0651562 
1 1.93584 -10.5358 -1.75689 
1 1.7848 -10.6798 1.76248 
1 3.53457 -8.88078 -1.71686 
1 3.56887 -8.82046 1.74994 
1 1.83386 -8.89421 0.0457956 
2 6.82656 -12.5225 -1.7693 
1 5.30805 -12.6677 0.0885851 
1 7.11169 -12.4455 1.56934 
1 6.99008 -10.6667 -0.00841778 
1 5.26022 -10.4757 -1.67805 
1 5.29487 -10.7266 1.76232 
1 7.04676 -8.95837 -1.74527 
2 7.11924 -8.93116 1.73103 
1 5.17668 -8.86787 0.0608935 
1 8.76424 -10.82 -2.03835 
1 8.81576 -12.1677 -0.132166 
1 10.5625 -9.07795 -1.87046 
1 10.8078 -9.06203 1.65457 
2 8.83151 -8.99331 -0.161235 
1 8.92978 -10.8003 1.79879 
1 -12.5016 -5.35112 0.145143 
1 -12.5653 -7.02866 -1.68945 
2 -10.9204 -7.24284 0.064329 
1 -10.8687 -5.33342 -1.75926 
1 -10.7709 -5.34178 1.83635 
1 -8.98583 -6.95683 -1.77488 
1 -8.96612 -7.19196 1.79951 
1 -9.04341 -5.39266 -0.0113848 
1 -7.10496 -7.11163 0.055887 
1 -7.28969 -5.24044 -1.7454 
1 -5.35124 -7.01154 -1.59732 
2 -7.23764 -5.43184 1.76763 
1 -5.26619 -6.97563 1.7566 
1 -5.36811 -5.22852 0.00152286 
1 -3.50992 -6.93856 0.0205508 
1 -1.82081 -7.17845 -1.78125 
1 -1.70205 -7.06788 1.68291 
1 -3.64893 -5.22525 -1.78344 
1 -3.59095 -5.18686 1.70699 
2 -1.77392 -5.30457 -0.109123 
1 -0.0788406 -5.38006 -1.85502 
1 0.11654 -5.30468 1.74597 
1 0.0862552 -7.11544 -0.048293 
1 3.59865 -7.02268 0.0757752 
2 1.8208 -7.13669 -1.7559 
1 1.90101 -7.08139 1.69563 
2 3.50141 -5.38483 -1.8339 
1 3.63747 -5.26554 1.78185 
1 1.78241 -5.2549 -0.0078019 
1 7.09681 -7.11552 -0.148773 
1 5.34845 -7.06912 -1.81946 
1 7.15112 -5.3155 -1.81958 
1 5.38997 -7.1504 1.73161 
2 7.29011 -5.31342 1.81684 
1 5.37037 -5.33429 -0.00456597 
1 10.6007 -7.1887 0.00143766 
1 10.5435 -5.38663 1.71614 
1 10.7075 -5.48774 -1.80521 
1 8.82922 -7.01732 -1.90155 
1 9.01427 -7.17342 1.68796 
1 8.93974 -5.311 -0.106509 
1 12.3151 -7.34869 -1.77808 
2 12.6124 -5.45868 -0.261329 
1 12.4849 -7.17275 1.45201 
1 -14.3614 -3.49393 0.218125 
2 -14.1745 -1.59958 -1.51553 
1 -14.2727 -1.71224 1.93722 
1 -12.7802 -3.48735 -1.59916 
1 -12.3814 -3.39922 1.9237 
1 -12.523 -1.72369 0.072699 
1 -10.9005 -3.62583 0.0468126 
1 -10.8401 -1.63031 -1.66014 
1 -10.6721 -1.69919 1.60847 
1 -9.07124 -3.62047 -1.70402 
2 -9.05812 -3.51531 1.65801 
1 -9.02632 -1.80589 -0.0809524 
1 -7.32183 -3.64594 0.0954462 
1 -7.18508 -1.80547 -1.60678 
1 -7.28907 -1.75654 1.84477 
1 -5.35131 -3.41146 -1.74198 
2 -5.45094 -3.49779 1.93984 
2 -5.36862 -1.65643 0.0453753 
1 -3.63715 -3.54869 0.0657881 
1 -3.56183 -1.72062 -1.68096 
2 -1.82592 -3.38362 -1.80214 
2 -3.42034 -1.70569 1.88129 
1 -1.6879 -3.55964 1.70827 
1 -1.84039 -1.72189 0.0387176 
1 -0.137636 -1.60217 -1.92806 
1 0.0860183 -3.46699 0.0162586 
1 -0.0389292 -1.70367 1.82147 
2 3.55153 -3.42786 0.0364108 
2 1.61254 -3.50023 -1.86541 
1 3.49043 -1.7021 -1.75194 
1 1.76497 -3.50278 1.85294 
1 3.461 -1.70808 1.87699 
1 1.65981 -1.69433 -0.0149747 
2 3.61099 -0.0969087 -0.0201062 
1 1.70197 0.0779797 -1.78011 
1 -7.06791 -1.5702 12.2411 
1 7.1297 -3.60368 -0.0141013 
1 7.16132 -1.819 -1.90531 
1 6.99427 -1.75383 1.87541 
1 5.27787 -3.61504 -1.84457 
1 5.38437 -3.53979 1.80288 
2 5.52981 -1.78609 -0.0272283 
1 -5.42408 -3.49302 12.42 
2 12.3498 0.00971822 -1.67127 
1 10.588 -3.69182 -0.122207 
1 10.6366 -1.8629 1.67258 
1 10.6208 -1.65951 -1.8151 
1 8.86177 -3.50455 -1.87811 
1 9.07094 -3.57885 1.84836 
2 8.81678 -1.83024 -0.0244134 
1 12.2647 -3.46227 -1.79702 
2 12.4885 -3.64103 1.52963 
1 12.3174 -1.80187 -0.0160627 
1 -0.170144 -6.3888 14.2155 
2 14.1964 -3.55921 -0.496461 
1 14.3022 -1.47458 -1.55155 
1 14.2999 -1.92074 1.54161 
2 -5.13479 -12.5024 3.31201 
2 -3.05254 -14.1575 3.13112 
1 0.137432 -14.2016 3.73379 
1 3.41171 -14.1377 3.57332 
1 -10.5044 -10.864 3.52417 
1 -10.6562 -9.14397 5.37024 
2 -8.85267 -9.02544 3.59818 
2 -8.42355 -10.8281 5.23612 
1 -7.01576 -10.7129 3.3001 
1 -5.32788 -10.7865 5.13511 
1 -6.97481 -8.90327 5.3474 
2 -5.20316 -8.76137 3.37375 
2 -3.23957 -12.545 5.2341 
1 -1.56894 -12.3719 3.54832 
1 -1.66797 -10.5062 5.2427 
1 -3.35115 -10.6547 3.41083 
2 -3.57791 -8.90699 5.26746 
1 -1.63597 -8.76728 3.5342 
1 0.133347 -8.72482 5.46137 
2 -0.0633933 -12.3678 5.3839 
1 1.80924 -12.3699 3.65334 
1 3.61186 -12.5851 5.40583 
1 0.0716161 -10.6358 3.54011 
1 1.76444 -10.6771 5.40894 
2 3.63185 -10.7844 3.69249 
1 3.55396 -8.99321 5.43377 
1 1.88314 -8.90368 3.52505 
1 5.39083 -12.6218 3.52697 
1 7.16695 -10.791 3.50547 
1 5.47637 -10.8049 5.42165 
2 7.08463 -8.89758 5.38903 
2 5.28869 -8.7811 3.61276 
1 9.00151 -10.7055 5.44777 
2 8.98209 -8.95432 3.53862 
2 10.6851 -8.41197 5.36622 
1 -12.5022 -5.3103 3.70192 
1 -10.859 -7.13526 3.66701 
1 -10.5983 -5.49782 5.48913 
1 -8.86941 -7.3836 5.30645 
1 -9.071 -5.48741 3.63015 
1 -7.1486 -7.20972 3.63698 
1 -7.18608 -5.43481 5.4259 
1 -5.34842 -7.1196 5.21762 
2 -5.26495 -5.29073 3.6361 
1 -1.71256 -7.1377 5.38903 
1 -3.49209 -7.0609 3.42651 
1 -3.49122 -5.37976 5.28534 
2 -1.71851 -5.42845 3.47986 
1 0.124776 -7.20075 3.54172 
2 0.205659 -5.50501 5.25 
1 1.89332 -7.25182 5.30294 
1 3.45864 -7.07335 3.59579 
1 3.53604 -5.29606 5.24746 
1 1.78137 -5.23653 3.39167 
1 7.19084 -7.22324 3.44783 
1 5.29168 -7.16077 5.45211 
2 7.10049 -5.3679 5.22852 
2 5.30285 -5.34383 3.57711 
1 10.7761 -7.14298 3.35051 
1 10.6243 -5.5225 5.25077 
1 8.818 -7.08729 5.40273 
1 8.98872 -5.45835 3.49086 
2 12.5279 -5.43883 3.34199 
1 -13.9838 -3.22954 3.9076 
1 -12.3325 -3.60874 5.50279 
1 -12.1674 -1.68852 3.54579 
1 -10.6073 -1.87719 5.38999 
1 -10.7113 -3.61512 3.6833 
1 -9.05349 -3.64161 5.41255 
2 -8.96417 -1.70461 3.60958 
1 -7.34433 -1.71477 5.6056 
2 -7.32213 -3.61807 3.87593 
1 -5.33652 -3.51776 5.41878 
1 -5.50184 -1.727 3.7243 
2 -3.60492 -1.72984 5.32504 
2 -1.71773 -3.56957 5.32268 
1 -3.48156 -3.54187 3.57253 
1 -1.65987 -1.73316 3.60041 
1 0.0959837 -1.81369 5.40215 
1 0.111796 -3.55337 3.59576 
1 1.87047 -3.48402 5.338 
1 3.49093 -1.66552 5.39726 
1 3.59707 -3.51614 3.65651 
1 1.64159 -1.78923 3.63358 
1 3.57199 0.0757761 3.53397 
1 7.28513 -1.86552 5.38423 
1 7.16969 -3.5126 3.52175 
1 5.40221 -3.43364 5.33247 
1 5.31526 -1.7504 3.54722 
1 -0.0452912 -5.29813 12.0479 
2 1.83145 -6.88454 12.5235 
2 10.6997 -1.78406 5.34309 
1 10.7021 -3.78808 3.58841 
2 8.98109 -3.72144 5.27082 
1 8.99427 -1.82483 3.46833 
1 2.01012 -4.98387 14.1352 
2 12.3201 -1.94387 3.35294 
1 12.5095 -3.77446 5.37263 
1 14.2416 -3.56791 3.40449 
1 14.1389 -1.64593 5.27505 
2 13.9558 -0.0869875 3.34629 
1 -8.80213 -9.2855 7.08183 
1 -5.02764 -9.38101 10.5191 
1 -4.98467 -10.9727 8.8708 
1 -6.66035 -10.8544 7.05207 
2 -6.94707 -9.2194 8.78432 
1 -5.2252 -9.03736 7.09665 
1 -1.86989 -12.3851 7.20741 
2 -1.85996 -8.98669 10.5664 
1 -2.04833 -10.9116 8.99657 
1 -3.53532 -10.77 6.98983 
1 -3.47978 -8.94148 8.89306 
1 -1.73787 -8.87385 7.18044 
1 0.00738915 -9.00362 8.9765 
1 -0.0989577 -10.6942 7.19004 
1 1.96819 -12.3423 7.12154 
1 1.8604 -10.5932 8.92981 
1 3.72584 -10.7114 7.06402 
1 3.5207 -8.82625 8.96408 
1 1.85371 -8.89822 7.25354 
1 1.69932 -8.86349 10.858 
1 7.21421 -10.6693 7.14652 
1 5.14863 -8.98662 10.5483 
1 5.28068 -10.6373 8.84357 
1 7.14372 -8.87207 8.77721 
1 5.29532 -8.86549 7.14283 
1 9.13657 -8.89095 7.22635 
1 -10.1738 -5.56319 9.33634 
2 -10.4142 -7.33413 7.10536 
1 -8.65626 -7.34214 8.86323 
1 -8.71037 -5.5931 7.14694 
1 -8.28428 -5.4213 10.7551 
1 -6.82121 -7.42454 10.5903 
1 -6.93589 -5.57022 8.71478 
1 -5.30903 -7.26747 8.79955 
1 -7.0337 -7.319 7.11992 
1 -5.33021 -5.4319 6.98274 
1 -5.65472 -5.3775 10.8323 
2 -3.71242 -7.13176 10.8208 
1 -1.94864 -5.44494 10.6513 
1 -1.80143 -7.22411 8.81329 
2 -3.68767 -5.45562 8.9082 
1 -3.62387 -7.12749 7.02461 
1 -1.83738 -5.48365 7.15456 
1 -0.131279 -7.18235 10.6906 
1 -3.93897e-05 -7.24077 7.20246 
2 -0.0108953 -5.37073 8.99232 
1 3.63016 -7.09901 10.7616 
1 1.79363 -5.33609 10.6477 
1 1.68522 -7.21394 8.94132 
1 3.54624 -5.39358 8.93796 
1 3.62042 -7.2365 7.16135 
2 1.80382 -5.39424 7.17872 
1 7.00212 -7.34416 10.6273 
1 5.45489 -5.4241 10.7393 
1 5.32472 -7.14011 8.96626 
1 7.12809 -5.24318 8.87897 
1 7.21118 -7.15577 7.19361 
2 5.32985 -5.35278 7.16091 
1 8.72084 -5.50636 10.712 
1 10.5743 -5.18198 9.12209 
1 10.7587 -6.77072 7.2103 
1 8.8805 -7.04286 8.93546 
1 8.85221 -5.22975 7.23547 
2 -11.8057 -2.00267 7.43698 
1 -8.98053 -1.65446 10.461 
1 -10.8489 -3.10315 9.55696 
2 -10.6852 -4.13258 7.32311 
1 -8.64908 -3.66754 9.01742 
2 -9.23189 -1.80491 7.37078 
1 -11.1162 -0.714092 9.48653 
1 -7.0493 -3.33925 10.7555 
1 -5.31118 -1.65256 10.5877 
1 -7.28532 -1.6919 8.92579 
2 -5.5005 -3.7334 8.89633 
1 -7.29149 -3.53609 7.09779 
1 -5.49653 -1.82994 7.18128 
1 3.6454 -5.2783 12.3519 
1 -7.14222 0.0492942 7.19755 
1 -3.65713 -3.65639 10.6515 
1 -1.88493 -1.7803 10.6672 
1 -3.64867 -1.82697 8.87728 
2 -1.86211 -3.53671 8.94675 
1 -3.63166 -3.60268 7.08476 
1 -1.70331 -1.70815 7.20348 
1 -0.0198974 -1.72564 8.92972 
1 -1.87379 -0.10048 8.86343 
1 -3.56711 -0.0277574 10.6397 
2 0.0394622 0.160594 7.09603 
2 -0.00816415 -3.50123 7.07253 
1 -0.0269287 -3.46619 10.6597 
1 1.71979 -1.74377 7.16792 
2 3.58172 -3.58124 7.05135 
1 1.7499 -1.71131 10.5638 
1 1.79559 -3.50454 8.95491 
1 3.62894 -1.66277 8.93444 
1 3.58165 -3.54157 10.4976 
1 -1.94612 -6.86572 12.607 
1 7.1133 0.0347127 10.7982 
1 5.19868 0.0726159 8.84081 
1 7.06682 -1.69588 8.94337 
1 7.11843 -3.49583 10.775 
1 5.30285 -1.65932 10.6686 
1 5.38145 -1.77974 7.04589 
1 5.51057 -3.47556 8.94497 
1 7.10982 -3.48034 7.06513 
1 7.25096 -0.0120094 7.13906 
1 10.6661 -3.73704 7.01439 
1 8.88472 -1.95849 7.21358 
1 8.93516 -1.83413 10.767 
1 8.80045 -3.5492 9.0822 
2 10.8216 -2.07849 8.89211 
2 9.00881 -0.158557 8.97941 
1 -3.76943 -5.21522 12.5216 
2 12.4219 -1.79512 7.14883 
1 -0.11548 -8.69078 12.5694 
1 -3.69605 0.0187659 -7.15911 
1 -0.313641 0.0758231 -10.7577 
1 -3.65527 -0.0882577 -10.7009 
2 10.71 -0.0203766 -7.07968 
1 -14.2737 -0.0912942 -3.47579 
1 -10.9008 0.119604 -3.51082 
1 5.10813 0.107797 12.6117 
2 -8.88888 -0.0257427 -5.28696 
1 3.52503 0.0808895 -3.57591 
1 -14.3627 0.279393 0.115418 
1 1.66521 0.00310231 12.4111 
2 -12.4344 0.0508614 1.85911 
1 -10.7197 0.197708 -0.0294332 
1 -7.128 0.0810134 0.0279163 
1 -3.56328 0.0885469 -0.0150332 
1 -1.904 0.0189117 -1.76888 
1 -1.67276 0.0934615 1.70759 
1 0.0339663 0.0505513 0.0307731 
1 5.36317 0.0158454 -1.87294 
1 -10.5098 0.224038 3.70126 
1 -12.2422 -0.117511 5.3027 
1 -8.91802 0.069622 5.47079 
1 -7.23834 0.00194804 3.78938 
1 -3.62563 0.0613774 3.66696 
1 -10.689 0.121143 7.19547 
1 3.43708 -0.115885 10.6764 
1 12.2107 0.0205622 9.09572 
1 -9.68015 3.07038 -11.0502 
1 -9.35253 0.767191 -10.9314 
1 -7.31808 1.50233 -12.3316 
1 -5.59004 3.73001 -12.55 
2 -1.9519 1.64489 -14.4096 
2 -3.77487 1.93084 -12.7268 
1 -1.93321 3.70066 -12.6175 
1 -0.198707 3.56923 -14.4271 
2 -0.163519 1.84215 -12.4941 
1 -3.76933 -0.18917 -14.4233 
1 3.56308 3.55151 -14.2831 
1 3.57058 1.78166 -12.5338 
2 1.6739 3.60147 -12.6465 
1 1.73174 1.93308 -14.6614 
1 5.15257 1.61487 -14.2221 
1 7.2509 1.87931 -12.5189 
1 5.33934 3.62996 -12.5807 
1 -1.90517 7.19493 -12.6362 
1 -3.75143 5.50212 -12.6115 
1 -0.0607759 5.43981 -12.6311 
1 1.83796 7.13092 -12.4074 
1 3.45811 5.33824 -12.544 
1 -12.4516 1.82874 -7.1154 
2 -8.93685 3.69202 -8.78846 
2 -8.75484 1.87026 -7.04454 
1 -10.8728 3.63387 -7.09041 
1 -10.7383 1.68586 -9.01407 
1 -7.339 3.65582 -10.7047 
2 -5.37643 1.78725 -10.7176 
2 -7.52901 1.65681 -9.13706 
1 -5.36064 3.59057 -9.01696 
1 -7.07929 3.66772 -7.02376 
2 -5.46432 1.89063 -7.25866 
1 -3.66812 3.62444 -10.9003 
1 -2.04753 1.88234 -10.8234 
1 -3.62631 1.7388 -8.97204 
2 -1.93951 3.54395 -9.02639 
2 -3.63098 3.61056 -7.13826 
1 -1.8948 1.73984 -7.18991 
1 -0.150146 3.75737 -10.8484 
1 -0.168196 1.85193 -9.18054 
1 1.91289 7.09038 12.409 
1 3.58787 5.32273 12.588 
1 0.155005 5.26826 12.6024 
1 -0.201871 3.52025 -7.20391 
1 3.62414 3.58279 -10.7759 
1 1.80462 1.87931 -10.8402 
1 3.58381 1.7474 -9.03261 
2 1.60387 3.60644 -9.03005 
1 3.38472 3.60413 -7.21039 
2 1.68538 1.7572 -7.23233 
2 7.07865 3.69459 -10.7526 
1 5.34964 1.84334 -10.8096 
1 7.20101 1.83092 -9.01568 
1 5.1745 3.59535 -8.99944 
1 6.97109 3.49657 -7.22986 
1 5.27356 1.79773 -7.31152 
2 5.43144 0.0258313 -9.12195 
2 7.1464 0.197313 -7.06469 
2 7.48406 0.0214122 -10.8084 
1 9.04682 2.11462 -10.7422 
2 10.7603 2.02788 -8.90013 
1 8.86885 3.57487 -8.84869 
1 9.03597 1.92676 -7.09861 
1 10.6605 3.90707 -7.06223 
1 8.93993 0.193879 -8.80438 
1 -1.77477 6.77517 12.4759 
2 12.4052 1.99662 -6.98991 
1 -10.8209 5.34187 -9.05842 
1 -10.823 7.14179 -6.80483 
1 -9.18914 7.03609 -8.7082 
1 -8.98831 5.24574 -6.93491 
1 -8.89182 5.44181 -10.5723 
2 -5.57998 5.42823 -10.7729 
1 -7.3045 7.26495 -10.5025 
1 -7.14719 5.32022 -8.82061 
1 -5.37412 7.25255 -8.92749 
2 -7.20639 7.08061 -7.12234 
1 -5.44675 5.32729 -7.11018 
2 -3.64098 7.42395 -10.861 
1 -1.80438 5.37133 -10.8438 
1 -1.86871 7.19937 -9.12723 
2 -3.65563 5.5278 -9.07199 
1 -3.65177 7.09862 -7.10505 
1 -1.90606 5.48989 -7.13134 
2 -0.219878 5.52933 -8.87191 
1 -0.0179156 7.22232 -10.8741 
1 -0.147276 7.1578 -7.15985 
1 3.68105 7.14812 -10.8572 
1 1.72122 5.31536 -10.7937 
2 1.75425 7.27276 -9.07381 
1 3.55167 5.46219 -8.98219 
1 3.43385 7.09446 -7.20701 
1 1.64929 5.36765 -7.09652 
1 7.09374 7.02931 -10.7116 
1 5.30569 5.39764 -10.7717 
1 7.05141 5.30985 -8.91005 
1 5.31952 7.14258 -8.80953 
1 7.15864 7.00808 -7.21795 
1 5.33102 5.26025 -7.14451 
1 8.91651 5.30727 -10.5364 
1 10.8833 5.06583 -9.03277 
2 10.5936 6.59585 -7.15087 
1 9.03224 6.89492 -8.95951 
1 8.69783 5.2398 -7.10379 
1 -9.05275 8.98035 -7.04153 
1 -5.56784 8.78296 -10.6755 
1 -5.41562 10.6893 -8.8911 
1 -7.31993 8.94118 -8.87084 
1 -5.40998 9.05449 -7.11653 
1 -7.05362 10.6507 -7.08302 
2 -1.73673 9.00824 -10.6406 
2 -1.9076 10.7517 -8.84582 
1 -3.70728 10.8732 -7.14243 
1 -3.72987 9.02719 -8.85805 
1 -1.86823 8.86725 -7.30594 
1 -0.0704469 10.6964 -7.24204 
1 -1.64559 12.5422 -7.0908 
1 -0.0804975 8.98545 -8.96886 
1 -0.13572 12.5454 -8.86524 
1 1.44302 9.05318 -10.8683 
1 1.73255 10.5982 -8.9619 
1 3.49614 10.6662 -7.16225 
1 3.67464 8.91976 -8.9184 
1 1.648 8.82957 -7.13683 
2 1.72136 12.3749 -7.12225 
1 5.45377 8.73425 -10.5027 
1 5.52358 10.4969 -8.84386 
1 7.26556 10.4891 -7.31753 
1 7.20494 8.71155 -8.8832 
1 5.27925 8.83914 -7.0707 
1 9.05592 8.61531 -7.21113 
1 -3.67224 5.16732 12.6835 
1 -12.7678 0.299027 -5.39338 
2 -14.1569 3.59216 -3.26758 
2 -12.5506 3.49071 -5.19946 
1 6.96121 1.74454 12.6373 
1 -12.48 1.82371 -3.44346 
2 -10.7103 1.78897 -5.25853 
1 -10.7091 3.55282 -3.41914 
1 -8.92056 3.55087 -5.26806 
2 -8.86988 1.82857 -3.35223 
1 5.06915 3.44299 12.7303 
1 -7.0413 1.88658 -5.28406 
2 -7.1494 3.70911 -3.52233 
1 -5.33252 3.64011 -5.36766 
1 -5.42048 1.83007 -3.4897 
1 -5.40782 0.0776549 -5.34274 
2 -6.94037 0.0609941 -3.43911 
1 -3.70285 1.77801 -5.32537 
1 -1.86168 3.71221 -5.31455 
1 -3.6589 3.63521 -3.58045 
1 -1.94241 1.86569 -3.58134 
1 -0.295042 1.81558 -5.36566 
1 -0.216434 3.51321 -3.61505 
1 -3.71282 -0.0600159 -3.55514 
1 -1.94564 0.161569 -5.46516 
1 3.47014 1.73958 -5.45269 
2 1.61326 3.57815 -5.43945 
1 3.48514 3.5438 -3.54605 
2 1.68897 1.85754 -3.63854 
1 3.41019 -0.249521 14.1977 
1 6.98208 1.84454 -5.27543 
1 6.89379 3.54358 -3.52835 
1 5.12278 3.46847 -5.30873 
1 5.15422 1.78546 -3.54104 
1 7.08025 -0.00478395 -3.57316 
1 10.6192 1.9869 -5.33195 
1 10.5111 3.58539 -3.62034 
2 8.77102 3.5318 -5.2969 
1 8.88428 1.83091 -3.54631 
1 8.87186 0.145584 -5.31384 
1 10.6244 0.0439433 -3.62357 
1 12.358 1.86817 -3.55093 
1 12.3758 3.76363 -5.24863 
1 14.096 3.57933 -3.33905 
1 -12.4925 5.42298 -3.37163 
1 -11.1354 7.36298 -3.88343 
1 -10.7885 5.25 -5.26554 
2 -8.91418 7.16253 -5.31505 
1 -9.07356 5.43732 -3.52114 
1 -7.14091 7.15949 -3.53579 
1 -7.12321 5.34539 -5.28586 
1 -5.3483 7.20998 -5.31329 
1 -5.42001 5.4593 -3.64161 
1 -1.90473 7.2781 -5.20402 
1 -3.69994 7.14145 -3.58876 
1 -3.62623 5.39566 -5.34484 
1 -2.00789 5.41244 -3.48437 
1 -0.262364 5.34602 -5.34772 
2 0.108919 7.12158 -3.63595 
1 1.70611 7.12332 -5.46193 
2 3.53932 7.10967 -3.67591 
1 3.46109 5.26906 -5.33185 
1 1.65227 5.35994 -3.63303 
1 7.16577 7.03787 -3.5799 
1 7.04378 5.20412 -5.34535 
2 5.48213 6.99895 -5.45277 
1 5.18497 5.38556 -3.64841 
1 10.5056 7.03699 -3.38939 
1 10.6144 5.39419 -5.16534 
1 8.80366 6.94354 -5.33057 
1 8.73902 5.31235 -3.53486 
2 12.3174 5.2622 -3.26171 
1 -10.6533 9.17275 -5.27003 
1 -8.84769 10.8468 -5.22648 
1 -8.73071 8.94794 -3.57623 
1 -10.5416 10.7235 -3.54713 
1 -7.09728 10.8277 -3.56569 
1 -5.46908 10.8379 -5.34834 
1 -7.12946 8.95254 -5.2694 
1 -5.36604 9.08483 -3.62502 
1 -5.20295 12.5421 -3.41334 
1 -1.81187 10.6985 -5.37911 
1 -3.42958 10.7802 -3.45857 
2 -3.61895 9.09945 -5.39569 
1 -1.91346 8.9327 -3.44971 
1 -0.16449 10.6553 -3.4925 
1 -0.245997 8.94388 -5.42382 
1 -1.75428 12.4659 -3.57914 
1 -3.66667 12.5828 -5.31334 
1 -0.0546786 12.4489 -5.30447 
2 1.60832 10.6098 -5.30679 
1 3.62246 10.7244 -3.83601 
1 3.50724 8.92985 -5.52759 
1 1.90788 8.93432 -3.66291 
1 1.84451 12.4222 -3.54217 
1 7.29019 10.8482 -3.68401 
2 5.48444 10.825 -5.58946 
1 7.25705 8.80363 -5.52946 
2 5.4781 8.90589 -3.78907 
1 10.6809 8.38232 -5.34845 
1 9.01453 10.4198 -5.22233 
1 8.77006 8.76598 -3.51376 
1 -3.38243 14.1795 -3.52857 
1 0.0868731 14.1791 -3.53061 
1 3.75824 12.5963 -5.47518 
2 1.70682 14.0593 -5.24018 
1 3.56275 14.3826 -3.69016 
1 5.34622 12.5868 -3.57632 
1 -14.2113 3.59736 0.0190092 
1 -14.2166 1.74982 -1.68935 
1 -14.2261 1.78371 1.90758 
2 0.255642 3.42526 14.2329 
2 -12.3045 3.67317 1.83106 
1 0.0483401 1.70056 12.3924 
1 -12.5201 3.61 -1.68341 
1 -8.89132 0.0330838 -1.62141 
1 -12.4125 1.84927 0.0601785 
2 -10.6324 3.55245 -0.0838846 
1 -10.6897 1.83702 -1.71191 
1 -10.5997 1.78609 1.90065 
1 -8.91101 3.6697 -1.79728 
1 -8.91205 3.71075 1.82814 
1 -8.89956 1.91387 0.0420831 
1 1.72971 3.46037 12.4649 
2 -8.87931 0.11695 1.71029 
1 -12.4588 0.121533 -1.65824 
1 -7.18754 3.58083 0.0413992 
1 -7.12309 1.80537 -1.67625 
1 -7.22668 1.83795 1.8429 
1 -5.4261 3.73364 -1.76524 
1 -5.37827 3.64066 1.8292 
1 -5.28952 1.8597 0.024672 
1 -5.30777 0.105343 -1.71607 
1 3.32322 1.7384 12.4244 
2 -5.43726 -0.0407651 1.96339 
2 -3.71685 3.61444 0.0515349 
1 -3.65813 1.87691 -1.84981 
2 -1.79298 3.52001 -1.78706 
1 -3.6391 1.74871 1.81421 
1 -1.94591 3.61309 1.82065 
1 -1.87069 1.86463 0.00974656 
1 -0.0794296 1.70786 -1.77958 
1 3.12665 3.4198 14.2916 
1 1.80028 1.52119 14.2209 
1 -0.0434286 1.89696 1.91322 
1 -3.47096 3.27366 14.2732 
1 -1.54675 1.66448 14.2717 
1 -0.0941526 3.64385 0.238053 
2 3.45665 3.63964 -0.000887747 
1 3.43223 1.84792 -1.77396 
2 1.52498 3.62779 -1.81202 
1 3.57122 1.88234 1.98663 
1 1.63255 3.75992 1.88286 
2 1.7751 1.76734 0.12261 
1 7.12038 0.0709398 -0.0414679 
1 7.06822 3.62663 -0.0217104 
1 7.11701 1.69179 -1.91809 
1 7.09369 1.884 1.87334 
1 5.12591 3.59411 -1.78349 
1 5.29894 3.54408 1.86058 
2 5.42464 1.91023 0.0107365 
2 -3.48907 1.71817 12.3612 
1 10.5472 3.54454 0.0150572 
1 10.6928 1.75584 1.72137 
2 10.5431 1.81862 -1.80941 
1 8.65925 3.56019 -1.73197 
1 8.77685 3.52756 1.76166 
1 8.67658 1.84351 0.0427243 
1 12.27 3.48013 -1.7774 
2 8.84375 0.0453544 1.7472 
1 8.92987 -0.0512524 -1.87851 
1 12.4216 3.7281 1.73569 
1 12.3657 1.8104 -0.0124676 
1 14.2788 3.62842 -0.0126316 
2 14.1297 1.70316 -1.7304 
1 14.0391 1.92077 1.83294 
1 14.4492 0.104313 0.18117 
1 12.3379 0.0585602 1.58245 
1 -12.4649 5.36095 -0.0678828 
1 -12.4415 7.20594 -1.72684 
1 -12.3684 6.99046 1.62883 
1 -10.7558 7.26656 -0.0791044 
1 -10.6683 5.38982 -1.76699 
1 -10.6693 5.3384 1.90629 
1 -8.91989 7.21234 -1.807 
2 -9.06283 7.15765 1.80713 
1 -8.9409 5.40869 0.0150288 
1 -7.12553 7.24292 0.010412 
1 -7.13652 5.39417 -1.7697 
2 -5.35873 7.35686 -1.81133 
1 -7.14791 5.45892 1.78594 
1 -5.42728 7.18209 1.79653 
1 -5.46247 5.48631 0.0279413 
1 -3.72056 7.32741 -5.60896e-06 
1 -1.91162 7.18449 -1.8844 
1 -1.96099 7.28504 1.89781 
1 -3.70873 5.37428 -1.73264 
1 -3.67886 5.47988 1.88303 
2 -1.97494 5.48529 -0.0760575 
1 -0.0683459 5.51261 -1.69133 
1 -0.0449774 7.27719 -0.0283012 
1 -0.171151 5.41482 1.72165 
1 3.50767 7.14788 0.00983012 
1 1.82313 7.16097 -1.71216 
2 1.6285 7.23889 1.78343 
1 3.42436 5.41115 -1.90591 
2 3.47015 5.40185 1.85289 
1 1.75892 5.47188 -0.0344889 
1 6.98816 7.06743 0.063779 
1 6.96442 5.28004 -1.80139 
2 5.36777 7.15785 -1.86672 
1 6.96384 5.3094 1.79401 
1 5.24479 7.22074 1.95131 
1 5.21392 5.36434 -0.00939688 
1 10.5309 7.0564 -0.00604206 
1 10.6532 5.34599 1.77498 
1 10.4489 5.28961 -1.79164 
1 8.78204 7.01241 -1.69116 
2 8.85845 7.10435 1.78162 
1 8.85309 5.30925 0.0849338 
2 12.4478 7.08212 1.51289 
1 12.3564 7.1944 -1.66083 
1 12.4168 5.38247 -0.209024 
2 -8.80256 10.7953 -1.82044 
1 -9.02432 10.6362 1.6627 
2 -10.6679 8.89472 -1.77376 
1 -10.7945 9.07018 1.47468 
1 -8.88238 8.95038 -0.0588951 
1 -7.18749 10.7684 0.052546 
1 -5.3795 10.8344 1.95087 
1 -5.38675 10.8742 -1.77855 
1 -7.07219 9.02367 -1.81424 
1 -7.02046 9.08598 1.85516 
1 -5.35541 9.11355 0.0725054 
1 -7.28939 12.4036 1.75366 
1 -7.08541 12.63 -1.64148 
2 -5.34243 12.5215 0.151771 
1 -3.52188 10.8279 0.0293253 
2 -1.69041 10.8166 1.79687 
1 -1.69925 10.7338 -1.71481 
1 -3.52224 8.99794 -1.65057 
2 -3.67052 8.98211 1.80896 
1 -1.77464 8.93623 0.0225517 
1 -3.40016 12.4348 -1.62184 
1 -1.74409 12.5146 0.116045 
2 -3.56892 12.5187 1.90659 
1 0.00354278 10.7919 -0.0488572 
1 -0.0194204 8.9935 1.70299 
2 0.0817517 8.99219 -1.78443 
1 0.0763031 12.3867 1.9594 
1 3.5137 10.72 -0.0266493 
1 1.65887 10.6272 1.80215 
1 1.87229 10.706 -1.87547 
1 3.54357 8.99057 -1.83065 
1 3.42163 8.94943 1.75479 
1 1.83248 9.10403 -0.0553559 
2 1.83645 12.3757 0.0289157 
1 6.97187 10.6859 -0.0552859 
1 5.20368 10.6572 1.79757 
2 5.37632 10.6496 -1.86007 
1 7.11565 8.82882 -1.82013 