ITEM: TIMESTEP
1860000
ITEM: NUMBER OF ATOMS
1289
ITEM: BOX BOUNDS pp pp pp
-100 100
-100 100
-100 100
ITEM: ATOMS type x y z 
1 -1.73047 -7.02796 -12.2871 
1 -3.50963 -5.36974 -12.7667 
1 -0.0586985 -5.38253 -12.5703 
1 1.56065 -7.14777 -12.5808 
1 3.36227 -5.25732 -12.7286 
1 -7.15154 -1.76361 -12.4345 
2 -5.44869 -3.7377 -12.4251 
2 -1.7695 -1.81931 -14.4115 
2 -3.75766 -1.91449 -12.5185 
1 -1.80354 -3.63096 -12.494 
1 -0.122153 -1.84834 -12.4717 
1 -0.0738266 -3.76221 -14.2328 
2 3.28048 -3.22028 -14.3893 
1 1.73345 -3.45625 -12.5531 
1 3.50075 -1.75359 -12.4653 
1 1.32618 -1.89891 -14.5345 
2 3.21543 -0.0582717 -14.3768 
2 1.62404 -0.0411471 -12.4769 
1 5.24089 -1.63825 -14.3773 
2 7.03231 -1.75741 -12.4977 
2 5.2938 -3.53522 -12.6076 
1 -1.9337 -12.5316 -6.97769 
1 -9.13099 -8.90489 -7.05275 
2 -5.25318 -10.5057 -8.79622 
1 -5.3837 -8.90528 -10.5998 
1 -7.16085 -8.95749 -8.8502 
1 -5.4531 -8.70778 -7.01364 
1 -7.22603 -10.4195 -7.0743 
1 -1.87779 -10.6668 -8.76396 
1 -2.03041 -9.02089 -10.7543 
1 -3.64361 -10.6813 -6.98611 
2 -3.61871 -8.6916 -8.81835 
1 -1.98335 -8.93786 -7.1196 
1 -0.101647 -8.87581 -9.02511 
1 -0.134405 -10.5854 -10.5885 
2 -0.0434021 -10.5867 -7.09526 
1 1.60997 -12.3656 -7.22299 
1 1.75594 -8.82207 -10.8659 
2 1.71602 -10.5116 -8.95927 
1 3.34644 -10.775 -7.15698 
2 3.489 -8.79541 -9.02779 
1 1.73943 -8.86617 -7.17128 
1 5.1966 -10.5821 -8.86838 
1 7.05161 -8.87423 -8.80477 
1 5.23858 -8.86378 -7.1439 
1 7.09475 -10.546 -7.1106 
1 5.27339 -8.77251 -10.6201 
1 8.83542 -8.90257 -7.22749 
1 -10.6804 -5.33959 -8.86857 
1 -8.93381 -5.23692 -10.6301 
1 -9.21492 -7.19557 -8.98162 
2 -9.08778 -5.17414 -6.99434 
2 -10.7059 -7.19461 -6.8679 
1 -7.26774 -7.27729 -10.4307 
1 -5.50672 -5.4164 -10.6095 
1 -7.28657 -5.30959 -8.84136 
1 -5.45593 -7.05092 -8.74635 
2 -7.27831 -7.14481 -7.07428 
1 -5.63161 -5.30722 -7.15483 
2 -3.70663 -7.06205 -10.7323 
1 -1.83549 -5.32186 -10.6964 
1 -1.77343 -7.10831 -8.95081 
1 -3.73969 -5.26637 -8.93991 
1 -3.68678 -6.97649 -6.99753 
2 -1.92932 -5.31759 -7.13147 
2 -0.00695023 -5.31317 -8.98791 
2 -0.0910976 -7.21388 -7.22548 
1 -0.0943383 -7.14928 -10.6483 
2 3.43947 -6.89964 -10.8385 
1 1.75794 -5.36617 -10.7663 
1 1.79693 -7.09811 -8.94442 
1 3.54077 -5.16762 -8.95319 
1 3.50757 -7.08494 -7.09387 
2 1.89782 -5.27704 -7.17632 
1 7.1564 -7.17423 -10.4603 
1 5.45134 -5.40608 -10.8105 
1 5.36181 -7.08505 -8.92636 
1 7.04873 -5.31491 -8.72715 
1 7.01246 -7.18322 -7.16967 
1 5.167 -5.34766 -7.06516 
1 8.76552 -5.00395 -10.656 
1 10.6472 -5.0336 -8.99964 
1 10.7515 -7.02268 -7.34286 
2 8.9648 -6.92193 -8.87931 
1 8.97536 -5.17062 -7.11462 
1 -12.5297 -1.60728 -7.07083 
1 -10.9067 -2.02878 -8.93509 
1 -8.99684 -2.09337 -10.8762 
1 -10.915 -3.62391 -7.09774 
1 -9.03351 -3.55153 -8.93927 
1 -9.11982 -1.98733 -7.13682 
1 -9.05371 -0.220572 -9.01862 
1 -10.8091 -0.225677 -7.11248 
1 -7.11046 -3.52513 -10.6234 
1 -5.39519 -1.78831 -10.7513 
1 -7.25194 -1.90618 -8.88976 
1 -5.34868 -3.5381 -8.94698 
1 -7.27217 -3.42665 -7.1843 
1 -5.38081 -1.81997 -7.18414 
1 -7.26105 -0.119957 -7.27676 
1 -3.56847 -3.6996 -10.7307 
1 -1.84791 -1.78841 -10.7296 
1 -3.6282 -1.68569 -8.89901 
2 -1.89476 -3.49766 -8.99937 
1 -3.66751 -3.52656 -7.02557 
1 -1.84986 -1.67539 -7.12543 
1 0.0188773 -3.51543 -10.758 
1 -0.0786497 -3.38945 -7.15943 
1 -0.12101 -1.73096 -8.95932 
1 -0.281737 0.102535 -10.7792 
1 -0.0586794 0.0064673 -7.25242 
1 3.55203 -3.63507 -10.8224 
1 1.6728 -1.7026 -10.8401 
1 1.70712 -3.49015 -8.94514 
2 3.42179 -1.79542 -8.90373 
1 3.47797 -3.4635 -7.03771 
1 1.72767 -1.67349 -7.08284 
2 1.58199 0.0508002 -8.94848 
1 3.51307 0.0208608 -10.6759 
1 3.63686 -0.101403 -7.00903 
1 6.8961 -3.63012 -10.6774 
1 5.27189 -1.93092 -10.6191 
1 7.06892 -1.73797 -8.96481 
1 5.2848 -3.62526 -8.84672 
1 7.0094 -3.60755 -7.16545 
1 5.37039 -1.8525 -7.13943 
2 7.23283 -0.0278195 -10.71 
1 8.89116 -2.12843 -10.7386 
1 10.8478 -3.43138 -7.19712 
1 8.6583 -3.51024 -8.88153 
2 8.88897 -1.83616 -7.16166 
2 10.7201 -1.86009 -9.02285 
1 8.83889 0.0101776 -8.91925 
2 10.7215 -0.0740254 -7.13317 
1 12.7915 -1.64785 -7.46387 
1 -1.81831 -14.165 -5.21371 
1 -3.79367 -12.4789 -5.22795 
2 0.0434817 -14.2818 -3.44414 
1 -10.7798 -8.96872 -5.09961 
1 -8.86403 -10.6206 -5.27027 
2 -8.99488 -8.99032 -3.35081 
1 -5.40498 -12.5446 -3.43818 
1 -7.16261 -10.8579 -3.32678 
1 -5.54518 -10.6202 -5.33749 
1 -7.20527 -8.96199 -5.21796 
1 -5.39116 -8.87671 -3.54458 
1 -2.03778 -12.5492 -3.56646 
2 -1.85595 -10.705 -5.26182 
1 -3.72015 -10.7694 -3.45271 
1 -3.65094 -8.90377 -5.39337 
2 -1.89508 -9.02586 -3.48787 
2 1.90233 -12.4555 -3.56755 
1 3.32455 -12.3214 -5.54262 
1 0.152023 -12.5094 -5.40602 
2 0.0338239 -10.6864 -3.48578 
1 -0.125721 -8.76974 -5.31176 
1 1.70477 -10.564 -5.40312 
1 3.6467 -10.5966 -3.63267 
1 3.61907 -8.9679 -5.37335 
1 1.78038 -8.91521 -3.52106 
1 5.07296 -12.5947 -3.65296 
2 6.93868 -10.919 -3.78524 
1 5.20319 -10.7812 -5.58303 
1 7.01656 -8.85646 -5.41294 
2 5.28277 -8.87017 -3.60188 
1 8.91982 -10.5868 -5.25017 
2 8.81427 -8.74794 -3.5352 
1 10.7829 -8.95883 -5.20833 
1 -12.8888 -5.29802 -3.38831 
1 -10.7853 -7.03052 -3.41628 
1 -10.905 -5.38228 -5.23019 
2 -8.95809 -7.08187 -5.1513 
1 -8.95756 -5.35375 -3.41679 
1 -7.1171 -7.15332 -3.44626 
1 -7.1575 -5.13682 -5.27859 
1 -5.58578 -7.0158 -5.31717 
1 -5.39466 -5.27785 -3.57084 
1 -1.92394 -7.08082 -5.2746 
1 -3.67742 -7.08805 -3.55562 
1 -3.75146 -5.2071 -5.28538 
1 -1.97733 -5.26531 -3.61215 
1 -0.0782527 -7.01883 -3.592 
2 -0.119261 -5.18469 -5.36012 
2 1.78551 -7.14202 -5.37867 
1 3.55077 -7.11445 -3.58398 
1 3.50886 -5.33129 -5.1817 
1 1.67395 -5.22481 -3.64113 
1 7.09511 -7.04898 -3.54868 
1 5.36056 -7.06096 -5.41696 
1 7.10704 -5.30444 -5.48318 
1 5.36323 -5.40222 -3.5635 
1 10.728 -7.09001 -3.63551 
1 10.9097 -5.2145 -5.44775 
2 8.84265 -7.01452 -5.50581 
2 8.9033 -5.34934 -3.53096 
1 12.445 -5.28397 -3.58529 
1 -14.2315 -3.42998 -3.39055 
1 -12.6337 -3.56051 -5.24913 
2 -12.4455 -1.58078 -3.45897 
1 -14.2529 0.327756 -3.65033 
1 -10.9206 -1.78587 -5.35099 
2 -10.9562 -3.68345 -3.5623 
1 -9.10123 -3.48447 -5.23545 
2 -9.13936 -1.8179 -3.35967 
2 -7.20513 -1.86063 -5.3636 
1 -7.18655 -3.57407 -3.35618 
1 -5.45281 -3.59358 -5.34061 
1 -5.36434 -1.766 -3.57915 
1 -3.74794 -1.70004 -5.28826 
1 -1.87382 -3.30057 -5.3875 
1 -3.63046 -3.42105 -3.68913 
1 -1.87276 -1.64051 -3.62701 
1 -0.0675046 -1.68595 -5.36228 
1 -0.118539 -3.55089 -3.59955 
1 -0.132516 0.138598 -3.68311 
1 -1.8347 0.141411 -5.40391 
1 -3.64703 0.097823 -3.68488 
1 1.69965 -3.52 -5.49333 
1 3.57778 -1.84738 -5.35857 
1 3.58856 -3.55894 -3.64038 
2 1.66118 -1.71383 -3.60743 
1 1.71129 -0.0290955 -5.43347 
1 7.15231 -1.89178 -5.33957 
1 7.08783 -3.51772 -3.60586 
1 5.35338 -3.66307 -5.30624 
1 5.45782 -1.80241 -3.56145 
1 5.30141 -0.0675069 -5.27491 
1 10.4533 -1.74645 -5.30801 
1 10.7805 -3.42656 -3.561 
1 8.91928 -3.64314 -5.28204 
1 8.8727 -1.69399 -3.57471 
1 12.3901 -1.54035 -3.3706 
2 12.5281 -3.05893 -5.38982 
2 12.4364 -0.307207 -5.36273 
2 14.1485 -3.14972 -3.2629 
2 14.1447 0.140031 -3.57294 
1 -5.13578 -12.436 0.0105642 
1 -1.71176 -14.2011 -1.83601 
1 -3.61382 -14.1395 -0.0269511 
1 -1.54946 -14.4269 1.49017 
1 -3.51688 -12.5248 -1.83455 
1 0.205607 -14.3119 -0.251362 
1 2.33964 -14.4933 -2.02271 
1 3.74492 -14.4001 0.205007 
2 1.78928 -14.2758 1.80723 
1 5.10229 -14.208 -1.77663 
1 7.11529 -12.5551 1.63505 
1 -10.8621 -10.4671 0.0849283 
1 -11.0376 -8.88017 -1.76708 
1 -8.90158 -10.7088 -1.42562 
1 -8.86973 -8.85429 0.056776 
2 -10.7253 -8.8903 1.86929 
2 -8.91616 -10.7722 1.69009 
2 -7.06201 -12.3585 1.55371 
2 -6.99711 -12.5575 -1.36692 
1 -7.0727 -10.4877 0.0457727 
2 -5.30798 -10.5295 -1.66066 
2 -5.26796 -10.6272 1.57718 
1 -7.13677 -8.8502 -1.75052 
1 -7.21191 -8.82478 1.76718 
1 -5.31316 -8.74064 0.00607556 
1 -1.79849 -12.3895 0.107197 
1 -3.41411 -12.3824 1.75238 
1 -3.43207 -10.6026 0.0156891 
1 -1.97427 -10.6798 -1.70626 
1 -1.59816 -10.5644 1.66157 
1 -3.67504 -8.82924 -1.7169 
1 -3.47183 -8.85445 1.72282 
1 -1.70374 -8.78495 0.0404252 
1 0.0516604 -12.4792 1.62768 
1 0.0377944 -10.5679 -0.0415671 
1 -0.158895 -8.8828 -1.81601 
1 0.0627801 -8.79964 1.77745 
2 -0.0463934 -12.3776 -1.73573 
2 1.87117 -12.5006 -0.00732236 
1 3.59368 -12.2962 -1.7157 
1 3.69585 -12.4904 1.76545 
1 3.56999 -10.6632 0.0404984 
1 1.81333 -10.5501 -1.71709 
1 1.78852 -10.7164 1.74812 
1 3.54703 -8.83436 -1.83018 
1 3.49079 -8.93437 1.75058 
1 1.76337 -8.81487 0.0875836 
1 5.28311 -12.4429 -0.0294374 
2 6.91188 -12.5497 -1.77574 
1 7.1105 -10.6913 -0.0567308 
1 5.28914 -10.6664 -1.81939 
1 5.44151 -10.8049 1.79384 
1 7.08018 -9.05105 -1.74108 
2 7.11712 -8.91006 1.77105 
1 5.32347 -8.9253 0.0925306 
1 8.86972 -10.789 -2.06418 
1 8.98848 -12.0647 0.0204969 
1 10.9287 -8.90778 -1.95797 
1 10.8065 -8.88204 1.52357 
2 8.99783 -8.99692 -0.191517 
1 8.79763 -10.7232 1.89209 
1 -12.5833 -6.89317 -1.7374 
1 -12.7514 -5.26806 0.11161 
2 -10.7124 -7.0869 -0.0244159 
1 -10.7059 -5.38385 -1.67932 
1 -10.8346 -5.41085 1.85466 
1 -8.96455 -7.02749 -1.77949 
1 -8.99738 -6.94693 1.78665 
1 -8.90905 -5.3638 -0.0408256 
1 -7.20013 -7.14298 0.0930007 
1 -7.1074 -5.33551 -1.63896 
1 -5.27754 -6.97308 -1.78784 
2 -7.16636 -5.32312 1.80387 
1 -5.27688 -7.12883 1.79561 
1 -5.25727 -5.39994 0.0239694 
1 -3.59297 -7.05389 0.0347783 
1 -1.85905 -7.02204 -1.79524 
1 -1.68032 -7.15834 1.70169 
1 -3.59268 -5.15709 -1.82288 
1 -3.62564 -5.39826 1.78151 
2 -1.77665 -5.41093 0.037078 
1 -0.0413363 -5.29006 -1.81106 
1 0.0273007 -7.08047 0.0225789 
1 0.0583191 -5.32812 1.88257 
1 3.61332 -7.0544 0.0845752 
2 1.71387 -7.1809 -1.7886 
1 1.73108 -7.12808 1.7608 
2 3.67146 -5.3763 -1.83176 
1 3.42954 -5.41512 1.77714 
1 1.71433 -5.3693 0.100175 
1 7.12393 -7.22804 -0.0388851 
1 5.35245 -7.23585 -1.65811 
1 7.13864 -5.30371 -1.75785 
1 5.40996 -7.11964 1.78076 
2 7.32447 -5.47504 1.65215 
1 5.30711 -5.409 0.0495288 
1 10.8202 -7.09939 -0.124112 
1 10.7878 -5.48898 1.62709 
1 10.7433 -5.29017 -1.91178 
1 8.98173 -7.05083 -1.73024 
1 9.06223 -7.27453 1.72121 
1 9.05103 -5.41174 -0.0110891 
1 12.4948 -7.25146 -1.93226 
2 12.6703 -5.33523 -0.254142 
1 12.726 -7.11212 1.55398 
1 -14.3547 -3.54409 0.0833681 
2 -14.2157 -1.64133 -1.75794 
1 -14.3083 -1.66734 1.793 
1 -12.5589 -3.59709 -1.6784 
1 -12.4749 -3.43038 1.81899 
1 -12.4844 -1.8064 -0.0162128 
1 -10.875 -3.66241 -0.015384 
1 -10.8258 -1.84285 -1.60938 
1 -10.743 -1.79764 1.68602 
1 -8.96357 -3.61181 -1.64989 
2 -9.02741 -3.67169 1.76139 
1 -8.99876 -1.74129 0.0558475 
1 -7.12465 -3.54842 0.0145416 
1 -7.22484 -1.71724 -1.73565 
1 -7.26645 -1.77085 1.78009 
1 -5.32705 -3.55196 -1.69076 
2 -5.33886 -3.46291 1.79683 
2 -5.43216 -1.74118 -0.0743598 
2 -5.41896 0.096931 1.78352 
1 -3.55496 -3.42799 0.0213599 
1 -3.59205 -1.6224 -1.82631 
2 -1.93425 -3.48166 -1.87272 
2 -3.55879 -1.63976 1.92245 
1 -1.75996 -3.50317 1.78303 
1 -1.84125 -1.68664 -0.0695194 
1 -0.0846111 -1.71361 1.84077 
1 -0.0588518 -3.49939 0.0301854 
1 -1.90575 0.138067 -1.73429 
1 -0.178452 0.0835487 0.0846314 
1 -1.76498 0.0841885 1.80474 
1 -0.077566 -1.70413 -1.92684 
2 3.53681 -3.56196 0.201286 
2 1.66898 -3.62691 -1.73788 
1 3.56132 -1.86854 -2.00137 
1 1.76102 -3.4815 1.74853 
1 3.56945 -1.7874 1.89277 
1 1.63088 -1.79908 -0.098411 
1 1.72386 -0.123538 -1.76493 
2 1.76793 -0.0772627 1.8708 
1 7.22592 -3.62145 -0.0283486 
1 7.12655 -1.79693 -1.87015 
1 7.13431 -1.82831 1.80713 
1 5.36801 -3.6528 -1.82668 
1 5.4555 -3.69871 1.79806 
2 5.57564 -1.84664 0.010209 
1 5.37559 -0.0745953 1.81155 
1 10.7335 -3.61136 -0.106961 
1 10.6076 -1.8052 1.76314 
1 10.5361 -1.70002 -1.72856 
1 8.84711 -3.54687 -1.88561 
1 8.9638 -3.55935 1.72941 
2 8.77292 -1.8161 0.0292564 
1 12.3564 -3.33213 -1.76624 
1 12.477 -1.63367 0.149163 
1 8.80111 0.0486563 -1.84224 
1 10.6076 0.0763024 0.102288 
2 8.88145 0.202092 1.71911 
1 12.3959 0.184772 1.71706 
2 12.5946 -3.59346 1.60174 
2 14.3627 -3.37063 -0.332496 
1 14.3544 -1.43462 -1.59577 
1 14.3264 -1.80591 1.68066 
2 -5.24701 -12.4552 3.49175 
2 -3.12446 -14.0358 3.51257 
2 -3.21503 -12.4632 5.34798 
1 -0.195758 -14.249 3.51964 
1 3.56889 -14.0625 3.59802 
1 5.45958 -12.3301 3.52361 
1 -10.585 -10.6285 3.62538 
1 -10.6146 -8.97405 5.45307 
2 -8.78456 -8.83542 3.64923 
2 -8.74145 -10.6566 5.41788 
1 -7.14469 -10.8518 3.5716 
1 -5.26821 -10.913 5.4473 
1 -6.98279 -8.83969 5.44885 
2 -5.47043 -9.01941 3.6576 
1 -1.50633 -12.2369 3.34577 
1 -1.69201 -10.6033 5.36768 
1 -3.41926 -10.6471 3.47956 
2 -3.57733 -8.97032 5.37882 
1 -1.73564 -8.85625 3.46408 
1 0.0908234 -10.5807 3.56795 
1 3.45859 -12.5252 5.46463 
1 -0.0163902 -8.84976 5.39098 
2 -0.007684 -12.4174 5.34865 
1 1.72214 -12.5166 3.53773 
1 1.81831 -10.6259 5.38766 
2 3.54399 -10.771 3.64247 
1 3.54668 -8.91595 5.38993 
1 1.74175 -8.80831 3.52931 
1 7.35195 -11.0707 3.76466 
1 5.35305 -10.8884 5.57986 
2 7.21593 -9.04209 5.52133 
2 5.31937 -8.94081 3.68312 
1 9.17054 -10.6127 5.52433 
2 9.11615 -8.90936 3.61783 
2 10.7551 -8.46603 5.44196 
1 -12.7216 -5.21251 3.67215 
1 -10.9666 -7.27227 3.6912 
1 -10.7565 -5.5377 5.22681 
1 -8.81018 -7.16731 5.34158 
1 -8.98442 -5.4661 3.67603 
1 -7.17187 -7.06742 3.5794 
1 -7.22983 -5.35548 5.40649 
1 -5.30347 -7.13486 5.50938 
2 -5.44459 -5.38414 3.79654 
1 -1.75588 -7.24582 5.46486 
1 -3.62331 -7.18155 3.60627 
1 -3.58775 -5.2784 5.39516 
2 -1.83355 -5.31682 3.4956 
2 -0.0602256 -5.40414 5.34267 
1 -0.0727235 -7.07305 3.61566 
1 1.80107 -7.11389 5.39484 
1 3.40508 -7.29335 3.51494 
1 3.61006 -5.32897 5.26467 
1 1.76536 -5.23971 3.62844 
1 7.18098 -7.21499 3.70417 
1 5.28154 -7.17025 5.42915 
2 7.02202 -5.38307 5.28682 
2 5.32367 -5.46549 3.52285 
1 10.9326 -7.19294 3.30611 
1 10.7998 -5.7146 5.26132 
1 8.77985 -7.12654 5.47626 
1 9.02827 -5.64909 3.49666 
2 12.7274 -5.35792 3.43731 
1 -14.1069 -3.12669 3.65731 
1 -12.6743 -3.64104 5.47951 
1 -12.2203 -1.712 3.60287 
1 -10.6854 -1.8049 5.37033 
1 -10.8236 -3.62477 3.62408 
1 -9.11222 -3.60097 5.34904 
2 -9.07072 -1.7031 3.6155 
1 -8.96656 0.0817138 5.32675 
1 -7.17172 -1.6679 5.54447 
2 -7.16452 -3.45368 3.70915 
1 -5.39117 -3.40418 5.40576 
1 -5.48558 -1.61228 3.64892 
1 -7.1608 0.055669 3.58665 
2 -3.57033 -1.75965 5.30437 
2 -1.82385 -3.46649 5.3227 
1 -3.54331 -3.47602 3.54676 
1 -1.76242 -1.73555 3.6226 
1 -0.037163 -1.72109 5.33487 
1 0.0535853 -3.53046 3.5908 
1 0.0389106 0.0332854 3.70084 
1 1.76971 -3.48054 5.33882 
1 3.49267 -1.78813 5.25545 
1 3.48861 -3.55344 3.60894 
1 1.84219 -1.7254 3.60456 
1 3.67538 0.0803471 3.60686 
1 7.17428 -1.69423 5.28173 
1 7.24148 -3.49493 3.49357 
1 5.38204 -3.44771 5.2345 
1 5.28645 -1.88578 3.53682 
2 6.95761 0.0137252 3.64308 
1 5.22478 0.0152907 5.32866 
2 10.8053 -1.8783 5.11966 
1 10.6396 -3.88418 3.38139 
2 9.02947 -3.7502 5.28903 
1 8.93422 -1.78409 3.46904 
1 8.90274 0.128718 5.34294 
2 12.5002 -1.8491 3.33268 
1 12.5448 -3.68307 5.15686 
1 14.491 -3.66313 3.31003 
1 14.4121 -1.8297 4.9864 
1 12.8086 0.0133343 5.3756 
1 -8.86187 -8.75297 7.124 
1 -5.25847 -8.89396 10.7655 
1 -5.17574 -10.5949 8.85672 
1 -7.03627 -10.7097 7.0798 
2 -7.06864 -9.01894 8.85019 
1 -5.36318 -8.89409 7.18713 
1 -1.54323 -12.4032 7.19518 
2 -1.69044 -8.88213 10.739 
1 -1.78916 -10.6567 8.95766 
1 -3.45184 -10.738 7.16388 
1 -3.53406 -8.82212 8.85941 
1 -1.74498 -8.86661 7.23812 
1 -0.0095276 -8.86671 8.88538 
1 0.129834 -10.5157 7.24479 
1 1.64244 -12.5219 7.12335 
1 1.90673 -10.7754 8.97101 
1 3.62205 -10.7925 7.24825 
1 3.47609 -8.92297 9.01644 
1 1.90804 -8.90634 7.15912 
1 1.72362 -8.89867 10.7708 
1 7.33156 -10.6977 7.30913 
1 5.34735 -8.82174 10.6055 
1 5.36878 -10.5518 8.89528 
1 7.07491 -8.75706 8.98422 
1 5.40015 -8.89493 7.15976 
1 9.07877 -8.76712 7.30671 
2 -10.6294 -6.98047 7.07239 
1 -10.6745 -5.40192 9.08253 
1 -8.83801 -7.10182 8.95649 
1 -8.74648 -5.37631 7.15549 
1 -8.57637 -5.27902 10.7704 
1 -7.12702 -7.21025 10.7225 
1 -7.04586 -5.25635 8.95423 
1 -5.48187 -7.18958 8.91098 
1 -7.10353 -7.07117 7.18313 
1 -5.44623 -5.3478 7.09995 
2 -3.54551 -7.04276 10.7282 
1 -1.80482 -5.22378 10.7251 
1 -1.79379 -7.11205 9.03255 
2 -3.78786 -5.42024 8.92569 
1 -3.46521 -7.19 7.13146 
1 -1.89549 -5.35145 7.26503 
1 0.0344835 -7.16149 10.6082 
1 0.00841564 -7.10878 7.21059 
2 0.0855028 -5.29276 9.07921 
1 3.71021 -7.17974 10.7172 
1 2.00743 -5.28666 10.7126 
1 1.80327 -7.16796 9.01315 
1 3.67025 -5.3188 9.04537 
1 3.56273 -7.22533 7.27259 
2 1.88162 -5.30786 7.17179 
1 7.13946 -7.08644 10.6895 
1 5.38562 -5.29808 10.7601 
1 5.3509 -7.15151 8.91372 
1 7.05488 -5.28616 8.93449 
1 7.07266 -7.18148 7.1341 
2 5.33153 -5.40051 7.24395 
1 8.71102 -5.17458 10.5836 
1 10.618 -4.68312 9.13001 
1 10.7219 -6.87271 7.39169 
1 8.83529 -6.8519 8.83517 
1 8.81072 -5.24728 7.12675 
1 -11.1021 -0.577893 9.33791 
2 -10.683 -3.88762 7.09053 
2 -12.0091 -1.65708 7.26749 
1 -9.07335 -1.74101 10.4017 
1 -11.1222 -2.89855 9.33574 
1 -8.79972 -3.65685 8.94148 
2 -9.15886 -1.71764 7.309 
1 -7.29844 -3.22265 10.6966 
1 -5.48355 -1.68879 10.7694 
1 -7.22178 -1.59323 8.85768 
2 -5.50768 -3.47681 8.9304 
1 -7.25552 -3.54877 7.06802 
1 -5.45103 -1.63979 7.24632 
1 -7.2319 0.0615952 10.6961 
1 -3.70638 -3.54412 10.729 
1 -1.83999 -1.82588 10.7288 
1 -3.63618 -1.75742 9.04236 
2 -1.94112 -3.48938 8.89951 
1 -3.69565 -3.52986 7.23693 
1 -1.97814 -1.75289 7.15104 
2 0.0451207 -3.41148 7.14166 
1 0.00105413 -1.74562 8.84812 
1 -1.79853 -0.0303629 8.90628 
1 -0.071327 -3.40051 10.5947 
2 -3.59997 0.0470111 7.31182 
1 -0.140364 0.0225794 10.6536 
1 1.71951 -0.0537296 8.87876 
1 1.80374 -1.65199 7.07855 
2 3.64133 -3.50899 7.07125 
1 1.6581 -1.81623 10.6064 
1 1.92357 -3.48178 8.92963 
1 3.56007 -1.6659 9.00561 
1 3.54767 -3.4411 10.653 
1 3.54301 -0.0382207 7.0899 
1 7.22452 -0.172437 10.6766 
1 7.15466 -1.74437 8.96029 
1 5.34099 -3.36291 8.95461 
1 6.97626 -3.56445 10.7135 
1 5.31193 -1.63383 10.6362 
1 7.07847 -3.4393 7.09854 
1 5.37462 -1.71083 7.04851 
1 5.31812 0.029432 8.8869 
1 7.21449 -0.0674606 7.17003 
1 8.71534 -3.44946 8.75001 
1 10.7639 -3.87861 6.97708 
1 8.85952 -2.20753 10.7619 
1 9.04533 -1.90993 6.92537 
2 10.7446 -2.09845 8.84844 
2 9.05978 -0.265096 8.95893 
2 12.4555 -1.92735 6.96542 
1 0.00692669 -8.65369 12.5539 
1 -5.53211 -5.28412 10.8655 
1 -1.71769 -7.02093 12.4928 
1 -3.63776 -5.35106 12.3954 
1 0.0901005 -6.68826 14.126 
1 -0.0116698 -5.26343 12.1229 
2 1.87014 -6.91621 12.461 
1 3.80836 -5.32156 12.6218 
1 1.93654 -5.13905 14.2405 
1 -5.58 0.0462062 12.4954 
1 -7.29233 -1.44446 12.4271 
1 -5.55223 -3.40718 12.4067 
2 -0.166711 -3.76372 14.0519 
1 -1.79204 -1.68559 14.2319 
1 -1.84082 -3.51199 12.427 
1 -3.63837 -1.71924 12.54 
1 3.18055 -0.0338841 14.1474 
1 1.78714 -2.1842 14.3749 
1 1.79509 -3.56413 12.4375 
1 3.50543 -1.74839 12.3409 
1 -0.00753534 -1.83748 12.4875 
1 0.0336065 -0.0244233 14.3354 
1 7.04137 -1.7196 12.5149 
2 5.27373 -3.28493 12.445 
1 -7.08134 1.68639 -12.2136 
1 -5.41637 3.56694 -12.6614 
1 -5.40491 0.042086 -12.5996 
2 -1.75925 1.86764 -14.5862 
2 -3.65784 1.85977 -12.6977 
1 -1.95609 3.52102 -12.4113 
2 -0.156548 1.84844 -12.4876 
2 -1.95404 -0.179332 -12.5526 
1 -3.69098 -0.0347211 -14.5228 
2 -0.0404432 0.0430468 -14.4482 
1 -0.266188 3.80194 -14.3839 
1 3.45607 3.52238 -14.477 
1 3.30966 1.89479 -12.6224 
2 1.60998 3.6862 -12.6202 
1 1.62726 1.91371 -14.5817 
1 5.16035 1.66731 -14.246 
1 7.05219 1.81561 -12.523 
1 5.21333 3.55605 -12.6954 
2 5.10684 0.0850073 -12.5354 
1 -1.65382 7.26392 -12.5013 
1 -3.36128 5.34836 -12.6371 
1 -0.092364 5.37795 -12.5252 
1 1.53468 7.17001 -12.402 
1 3.29844 5.33506 -12.5721 
1 -12.2196 1.83091 -7.37224 
1 -11.1832 3.16901 -9.22827 
1 -9.16777 1.78551 -10.583 
2 -8.82735 3.73194 -9.00277 
2 -9.14103 1.6996 -7.45346 
1 -10.7137 3.98087 -7.10216 
1 -11.2113 0.849238 -9.37609 
1 -7.012 3.52954 -10.7549 
2 -5.23207 1.72792 -10.6533 
2 -7.20282 1.78079 -9.04392 
1 -5.37577 3.49438 -8.89441 
1 -7.12084 3.55822 -7.16578 
2 -5.4346 1.63594 -7.03371 
1 -5.50352 -0.122994 -8.89526 
1 -7.29147 -0.0912034 -10.6749 
1 -3.63423 3.67281 -10.7588 
1 -1.96225 1.7441 -10.7812 
1 -3.6368 1.6269 -8.85547 
2 -1.86234 3.53571 -8.9282 
2 -3.6827 3.48603 -7.05003 
1 -1.85183 1.74786 -7.18569 
1 -0.137976 1.88651 -8.96891 
1 -0.114712 3.58882 -7.08515 
1 -0.078222 3.60446 -10.6775 
1 -3.65326 -0.0650811 -7.09436 
1 -1.93083 -0.0776493 -8.93397 
1 -3.67577 -0.148214 -10.7795 
1 3.52133 3.51468 -10.8827 
1 1.83081 1.81987 -10.6525 
1 3.5853 1.7262 -8.82513 
2 1.83054 3.42442 -9.01782 
1 3.58312 3.61899 -7.24365 
2 1.8321 1.70895 -7.0977 
2 7.03535 3.57549 -10.7478 
1 5.16949 1.85231 -10.7278 
1 7.11262 1.86158 -9.06084 
1 5.22146 3.6297 -9.02469 
1 7.05632 3.57574 -7.25891 
1 5.30492 1.85713 -7.12303 
2 5.34275 0.0839439 -8.96242 
2 7.16373 0.0663742 -7.03885 
1 8.83053 1.99818 -10.7942 
2 10.6256 1.82446 -8.91886 
1 8.88354 3.47213 -8.72396 
1 8.87038 1.796 -7.13582 
1 10.7475 3.61532 -7.02194 
1 10.3602 0.0452685 -10.7558 
2 12.3918 1.75484 -6.88815 
1 -10.4678 5.46911 -9.11146 
1 -10.6609 6.9135 -7.10127 
1 -8.79264 7.2385 -9.14667 
1 -8.75726 5.50924 -7.22561 
1 -8.27957 5.51029 -10.6951 
2 -5.37466 5.44438 -10.8334 
1 -6.86605 7.40605 -10.6246 
1 -6.93206 5.38025 -8.79296 
1 -5.35072 7.23695 -8.83773 
2 -7.09558 7.28907 -7.05246 
1 -5.35468 5.41756 -7.0637 
2 -3.66376 7.20169 -10.8165 
1 -1.91978 5.48253 -10.7571 
1 -1.92624 7.13608 -8.83126 
2 -3.75042 5.38193 -8.83769 
1 -3.54243 7.22764 -6.96609 
1 -1.85808 5.43674 -7.05218 
1 -0.203365 7.15961 -6.95585 
2 -0.0452792 5.38131 -8.86612 
1 0.0229943 7.14461 -10.6154 
1 3.39769 7.28749 -10.7417 
1 1.6994 5.29418 -10.7164 
2 1.72661 7.22459 -8.78378 
1 3.54259 5.39774 -9.05181 
1 3.54933 7.13533 -7.07836 
1 1.76259 5.38688 -7.04527 
1 6.92123 7.09398 -10.693 
1 5.20117 5.47652 -10.7919 
1 7.14948 5.29786 -8.92721 
1 5.17131 7.17408 -8.87807 
1 7.0508 7.06625 -7.25343 
1 5.33247 5.32983 -7.24056 
1 8.98552 5.16391 -10.4783 
1 10.8509 5.24704 -8.78211 
1 8.80805 7.11131 -8.86378 
1 8.83541 5.38478 -7.23117 
2 10.4496 7.0899 -6.93431 
1 -9.14836 9.01467 -7.00224 
1 -5.00997 9.17785 -10.6954 
1 -5.08984 10.7842 -8.6314 
1 -6.94505 9.12053 -8.84069 
1 -5.17803 8.98794 -7.03108 
1 -7.1482 10.6665 -7.0033 
2 -1.74188 8.80362 -10.5981 
2 -1.80614 10.6363 -8.71837 
1 -3.45052 10.7395 -6.90247 
1 -3.52556 8.8775 -8.81123 
1 -1.85024 8.85877 -7.00349 
1 -0.16456 8.77823 -8.77065 
1 -0.10379 12.4071 -8.66842 
1 -0.12557 10.6544 -6.79216 
1 1.54193 8.93846 -10.5774 
1 1.55363 10.5618 -8.69732 
1 3.51293 10.7581 -7.14773 
1 3.46023 9.04985 -8.96846 
1 1.68338 8.88561 -6.9657 
1 5.2982 9.01623 -10.5489 
1 5.14085 10.819 -8.64657 
1 6.97909 10.6434 -7.04363 
1 6.99013 8.81028 -8.82873 
1 5.17129 8.8843 -7.17082 
1 8.88441 8.97286 -7.28224 
1 -1.84609 12.5774 -6.91933 
2 1.80796 12.5753 -6.98603 
2 -14.0392 3.4004 -3.62636 
2 -12.4353 3.58184 -5.43019 
1 -12.5793 0.144362 -5.37212 
1 -12.3658 1.64406 -3.53234 
2 -10.7378 1.79731 -5.3949 
1 -10.8017 3.68159 -3.50356 
1 -8.97261 3.71924 -5.29229 
2 -9.01243 1.89522 -3.48204 
1 -10.6271 0.146902 -3.37844 
2 -9.11514 -0.0976636 -5.34047 
1 -7.37622 1.6994 -5.53309 
2 -7.14958 3.65806 -3.53857 
1 -5.38245 3.63697 -5.31413 
1 -5.50607 1.87795 -3.59561 
2 -7.21027 0.0160443 -3.46418 
1 -5.49657 0.00629767 -5.23394 
1 -3.60253 1.77769 -5.32023 
1 -1.77339 3.64025 -5.28257 
1 -3.60257 3.43621 -3.50709 
1 -1.85144 1.75208 -3.49731 
1 -0.138102 1.88861 -5.40221 
1 -0.104283 3.59569 -3.57674 
1 3.61637 1.75927 -5.3235 
2 1.82032 3.56338 -5.33003 
1 3.67894 3.4961 -3.51401 
2 1.80105 1.59639 -3.59227 
1 3.63392 -0.0288167 -3.5285 
1 7.08105 1.73496 -5.33719 
1 7.14659 3.60756 -3.71135 
1 5.25717 3.58513 -5.4605 
1 5.36694 1.73351 -3.52184 
1 7.0817 0.00355072 -3.51674 
1 10.5339 1.76131 -5.34521 
1 10.6434 3.59354 -3.62347 
2 8.88215 3.57742 -5.38213 
1 8.84496 1.79753 -3.53503 
1 8.76633 0.00993023 -5.20257 
1 12.3926 1.76567 -3.71337 
1 10.5149 0.0808621 -3.61128 
1 12.4654 3.55392 -5.26095 
1 14.0451 3.45797 -3.54218 
1 -12.478 5.42814 -3.55943 
1 -10.8043 7.15048 -3.36984 
1 -10.6541 5.45045 -5.20922 
2 -8.79057 7.14286 -5.24232 
1 -8.97944 5.36375 -3.42827 
1 -7.003 7.12848 -3.46424 
1 -7.01052 5.45633 -5.34144 
1 -5.36068 7.14846 -5.32489 
1 -5.28461 5.37069 -3.46738 
1 -1.83629 7.09094 -5.2172 
1 -3.65396 7.07443 -3.56664 
1 -3.54156 5.32422 -5.19449 
1 -1.82999 5.32202 -3.51555 
2 0.0559554 7.07054 -3.51406 
1 -0.158031 5.29236 -5.36051 
1 1.72844 7.07229 -5.49415 
2 3.56169 7.05268 -3.61974 
1 3.71608 5.35809 -5.4709 
1 1.73874 5.37211 -3.6952 
1 7.21676 7.16567 -3.59887 
1 7.12065 5.34819 -5.39093 
2 5.40093 7.10262 -5.47922 
1 5.42513 5.18218 -3.74712 
1 10.7006 7.02084 -3.63287 
1 10.7361 5.33608 -5.30617 
1 8.94234 6.98034 -5.27724 
1 8.81482 5.29621 -3.52821 
2 12.4093 5.38525 -3.44029 
1 -10.8091 8.7273 -5.25385 
1 -8.87273 10.6867 -5.08787 
1 -9.01152 8.71819 -3.4687 
1 -10.8193 10.3638 -3.51181 
1 -7.0889 10.7565 -3.43017 
1 -5.45466 10.7411 -5.152 
1 -7.0902 8.93325 -5.13231 
1 -5.40651 9.0144 -3.3843 
1 -5.26823 12.4448 -3.47629 
1 -1.82167 10.769 -5.1788 
1 -3.49194 10.7076 -3.32107 
2 -3.58017 8.98932 -5.13895 
1 -1.79387 8.99186 -3.42924 
1 -1.80613 12.5168 -3.45513 
1 -0.132364 8.86335 -5.23088 
1 -0.170052 12.5283 -5.22849 
1 -0.0348881 10.7499 -3.46545 
2 1.71608 10.7369 -5.24138 
1 3.4399 10.7959 -3.50761 
1 3.46071 9.03994 -5.3224 
1 1.77613 8.84347 -3.4276 
1 7.07193 10.8231 -3.54998 
2 5.29118 10.9524 -5.36242 
1 7.22512 8.85381 -5.39407 
2 5.29854 9.01648 -3.63524 
1 10.4954 8.96634 -5.15011 
1 8.69204 10.7572 -5.36377 
1 8.80303 9.08209 -3.51741 
1 -3.60066 12.4138 -5.21082 
1 -3.4001 14.3034 -3.52659 
1 1.7237 12.5162 -3.49729 
1 -0.330466 14.333 -3.61168 
1 3.44206 12.6095 -5.24573 
2 1.60049 14.2768 -5.13017 
1 3.37274 14.2975 -3.4407 
1 5.25871 12.6831 -3.446 
1 -14.1644 3.61574 0.0620573 
1 -14.4061 1.72151 -1.6628 
1 -14.2253 1.63792 1.81138 
1 -14.2996 0.0270612 -0.0258056 
1 -12.4929 1.76867 0.02319 
1 -12.4493 3.46194 -1.7803 
2 -12.5592 3.57244 1.88537 
2 -10.7563 3.60251 0.083279 
1 -10.6344 1.79943 -1.67508 
1 -10.6894 1.87201 1.80462 
1 -8.9971 3.62274 -1.65603 
1 -8.90643 3.66728 1.94665 
1 -8.89999 1.9595 0.0672787 
1 -10.7724 0.0295039 -0.00244624 
2 -8.83256 0.138458 1.67406 
2 -12.3687 -0.0168727 1.78848 
1 -12.4066 0.0655625 -1.66021 
1 -8.84699 0.0701589 -1.58617 
1 -7.14651 3.67262 -0.0269238 
1 -7.08085 1.93739 -1.79342 
1 -7.11146 1.94545 1.74071 
1 -5.30282 3.68436 -1.73626 
1 -5.43101 3.76933 1.78316 
1 -5.4551 1.98909 0.0235954 
1 -5.34659 0.0851074 -1.75896 
1 -7.0827 0.159349 -0.137001 
2 -3.58738 3.64217 0.129908 
1 -3.81584 1.91416 -1.80563 
2 -1.70871 3.57459 -1.70414 
1 -3.74208 1.84568 1.81043 
1 -1.86768 3.50646 1.92942 
1 -1.86428 1.83703 0.0297882 
1 0.0820476 1.72132 -1.75041 
1 -3.57637 0.103845 -0.0808077 
1 0.0221256 1.90719 1.75775 
1 0.205477 3.61234 0.178696 
2 3.59538 3.70045 -0.0607349 
1 3.56132 1.71768 -1.88053 
2 1.70435 3.66173 -1.80103 
1 3.65184 1.77117 1.75301 
1 1.8564 3.68119 1.93371 
2 1.84648 1.78 0.0106567 
2 3.50918 -0.144309 0.0217586 
1 7.04301 3.69448 0.0053813 
1 7.15328 1.85911 -1.75463 
1 7.00227 1.84652 1.81658 
1 5.47221 3.67359 -1.77125 
1 5.40715 3.68252 1.89052 
2 5.33584 1.89621 -0.0651701 
1 7.13813 0.156085 0.00445719 
1 5.39835 0.0825988 -1.73033 
1 10.59 3.7224 -0.00870771 
1 10.7992 1.94018 1.65149 
2 10.6244 1.93396 -1.68522 
1 8.79261 3.69736 -1.81016 
1 8.82561 3.56115 1.71627 
1 8.87984 1.993 -0.0183459 
1 12.3718 3.69092 -1.73271 
1 12.6012 3.75211 1.73197 
1 12.4869 2.05243 0.0541879 
2 12.3009 0.0513469 -1.70795 
1 14.1769 3.79558 -0.105786 
2 14.1554 1.91369 -1.65818 
1 14.3671 2.01361 1.76087 
1 14.4033 0.256917 0.151723 
1 -12.6201 5.26368 0.176662 
1 -12.5675 6.97393 -1.59651 
1 -12.6522 6.96586 1.78228 
1 -10.8345 7.0822 1.87941e-05 
1 -10.7627 5.26004 -1.6928 
1 -10.8229 5.34372 1.87953 
1 -8.96392 7.09718 -1.67731 
2 -9.16602 7.07099 1.70104 
1 -8.91373 5.37962 -0.0154655 
1 -7.21175 7.01535 -0.00359167 
1 -7.15005 5.38107 -1.73319 
2 -5.31131 7.13358 -1.72835 
1 -7.21036 5.33831 1.68355 
1 -5.42 7.05142 1.70263 
1 -5.32447 5.36135 0.059948 
1 -3.57362 7.14268 0.0126187 
1 -1.82856 7.14527 -1.79892 
1 -1.6762 7.17351 1.89512 
1 -3.56717 5.36613 -1.64282 
1 -3.54331 5.44716 1.91193 
2 -1.73219 5.35362 0.0593821 
1 0.11612 5.44627 -1.75801 
1 0.136214 7.16888 0.105077 
1 0.0122627 5.38199 1.86363 
1 3.57433 7.11602 0.0958031 
1 1.93856 7.1241 -1.6894 
2 1.825 7.16837 1.91446 
1 3.53223 5.3423 -1.86265 
2 3.67651 5.35044 2.00117 
1 1.74739 5.42243 0.102538 
1 7.04572 7.10823 0.116977 
1 7.09377 5.45831 -1.95687 
2 5.35129 7.15982 -1.8862 
1 7.10252 5.46113 1.76413 
1 5.49304 7.20967 2.01057 
1 5.37562 5.4582 -0.0463084 
1 10.4286 7.03119 -0.204667 
1 10.6671 5.26043 1.8309 
1 10.5215 5.32035 -1.81054 
1 8.81051 7.12329 -1.88807 
2 9.00877 7.21332 1.83687 
1 8.79158 5.3227 -0.0220415 
2 11.8152 7.23939 1.64864 
1 12.3168 7.2987 -1.82801 
1 12.4532 5.64775 -0.125135 
2 -8.89967 10.5936 -1.70892 
1 -8.98928 10.6641 1.69321 
2 -10.7412 8.87755 -1.67908 
1 -10.9278 8.88744 1.6904 
1 -9.09 8.87998 0.0803993 
1 -7.14433 10.4826 -0.0759693 
1 -5.47417 10.5455 1.7185 
1 -5.45512 10.6221 -1.76159 
1 -7.28039 8.72677 -1.69412 
1 -7.18188 8.79039 1.68679 
1 -5.3889 8.87356 -0.0404571 
2 -5.34867 12.386 0.0528717 
1 -7.23789 12.3418 1.62804 
1 -3.49742 10.7042 -0.0773763 
2 -1.66484 10.7556 1.73494 
1 -1.62977 10.6838 -1.5796 
1 -3.57479 8.94148 -1.69433 
2 -3.54962 8.99688 1.80252 
1 -1.78717 8.74618 0.101805 
1 -3.43104 12.3363 -1.6855 
1 -1.72221 12.5326 0.0620172 
2 -0.00454704 8.79962 -1.58614 
1 0.125979 10.6199 0.137544 
1 0.012322 8.93973 1.83652 
1 0.0295027 12.603 -1.81515 
1 0.033907 12.5601 1.87933 
1 3.58926 10.7202 0.245559 
1 1.70836 10.771 2.05941 
1 1.79074 10.6838 -1.68512 
1 3.56612 8.89097 -1.74035 
1 3.73419 8.97332 2.02051 
1 2.10316 8.94801 0.148227 
2 1.72742 12.4662 0.067321 
1 7.092 10.6218 -0.11382 
1 5.39974 10.8766 1.87155 
2 5.24849 10.7356 -1.70518 
1 7.05997 8.92364 -1.89792 
1 7.26246 8.99973 1.82011 
2 5.32226 8.89693 0.19128 
2 7.23871 12.2802 1.55998 