ITEM: TIMESTEP
1200000
ITEM: NUMBER OF ATOMS
1289
ITEM: BOX BOUNDS pp pp pp
-100 100
-100 100
-100 100
ITEM: ATOMS type x y z 
1 -1.67963 -6.99685 -12.5171 
1 -3.76883 -5.37299 -12.504 
1 0.086449 -5.34669 -12.3066 
1 1.4061 -7.11724 -12.4295 
1 3.25014 -5.24058 -12.4867 
1 -7.47732 -1.7755 -12.4151 
2 -5.55261 -3.49549 -12.3202 
1 -5.52192 -0.00763154 -12.4594 
2 -1.65453 -1.82655 -14.1157 
2 -3.67349 -1.77925 -12.5195 
1 -1.83544 -3.77026 -12.3983 
1 -0.0572975 -1.7744 -12.3645 
1 -3.75336 -0.048794 -14.3232 
1 -0.0612223 -3.75987 -14.0797 
2 3.40873 -3.15207 -14.2755 
1 1.68856 -3.48829 -12.4808 
1 3.42612 -1.69088 -12.356 
1 1.54337 -1.75585 -14.1915 
2 3.39689 -0.213948 -14.2569 
1 5.47883 -1.66967 -14.2983 
2 7.17029 -1.72822 -12.3893 
2 5.28636 -3.54089 -12.4868 
1 1.86917 -12.6169 -7.08357 
1 -8.89704 -8.86733 -6.98472 
2 -5.27225 -10.7346 -8.96314 
1 -5.41761 -8.97563 -10.6311 
1 -7.04332 -9.06243 -8.75743 
1 -5.2825 -8.94933 -7.01732 
1 -7.11198 -10.5024 -6.98801 
1 -1.86359 -12.7046 -7.41399 
1 -2.09196 -10.8828 -9.10228 
1 -1.86126 -8.98076 -10.8935 
1 -3.65922 -10.8975 -7.12795 
2 -3.6573 -8.84478 -8.87793 
1 -1.90981 -9.08592 -7.1502 
1 -0.163548 -8.85911 -8.9848 
1 -0.117017 -10.7779 -10.3964 
2 -0.154569 -10.8019 -7.5012 
2 1.90277 -10.6802 -8.98603 
1 1.66608 -8.92991 -10.8038 
1 3.59842 -10.7213 -7.27375 
2 3.67593 -8.77002 -9.02368 
1 1.8837 -8.83746 -7.27966 
1 5.36819 -10.5353 -8.92993 
1 7.25515 -8.68064 -8.93277 
1 5.37739 -8.77117 -7.15673 
1 7.26198 -10.5118 -7.13615 
1 5.48633 -8.59364 -10.6722 
1 8.92181 -8.82058 -7.21562 
1 -10.5097 -5.1267 -9.01985 
1 -8.5604 -5.34434 -10.6932 
1 -8.92173 -7.15429 -9.0409 
2 -8.86274 -5.19106 -7.10993 
2 -10.625 -6.9869 -7.20317 
1 -6.93078 -7.07509 -10.4799 
1 -5.39319 -5.29443 -10.5645 
1 -7.19198 -5.31018 -8.82941 
1 -5.42074 -7.19203 -8.7617 
2 -7.04569 -7.19775 -7.14438 
1 -5.4574 -5.3248 -7.06908 
2 -3.72048 -7.1022 -10.7947 
1 -2.10265 -5.39638 -10.7105 
1 -2.02353 -7.2561 -8.9597 
1 -3.79537 -5.39333 -8.80346 
1 -3.61076 -7.06588 -6.98515 
2 -2.03854 -5.36522 -7.00825 
2 -0.100146 -7.28683 -7.14075 
1 -0.150272 -7.15028 -10.6818 
2 -0.197284 -5.34278 -8.85552 
2 3.39967 -7.088 -10.8527 
1 1.70852 -5.18814 -10.5942 
1 1.69556 -7.13144 -8.91228 
1 3.63015 -5.40293 -9.07857 
1 3.66105 -7.0565 -7.22009 
2 1.89101 -5.29551 -7.25496 
1 7.18809 -6.76812 -10.7822 
1 5.22721 -5.35194 -10.8014 
1 5.44694 -7.01176 -8.92016 
1 7.09335 -5.23943 -8.91532 
1 7.04674 -6.99399 -7.10819 
1 5.2811 -5.24348 -7.08228 
1 9.03187 -5.27037 -10.6728 
1 10.6212 -5.15219 -8.85551 
1 11.0586 -6.83407 -7.00697 
2 9.05371 -6.99123 -8.7523 
1 8.87313 -5.12941 -7.07434 
1 -12.6079 -1.73324 -7.04463 
1 -10.6708 -1.92113 -8.80919 
1 -8.97771 -1.85136 -10.478 
1 -10.9075 -3.52585 -7.08229 
1 -8.84451 -3.58323 -8.83811 
1 -8.91736 -1.80365 -7.07774 
1 -8.88071 -0.118266 -8.73434 
1 -10.8813 -0.14743 -7.13559 
1 -7.16339 -3.36003 -10.5279 
1 -5.50488 -1.78732 -10.6176 
1 -7.09834 -1.81481 -8.69015 
1 -5.41971 -3.46091 -8.76347 
1 -7.03154 -3.51728 -7.0656 
1 -5.39412 -1.7535 -7.00971 
1 -5.40419 0.0635661 -8.84781 
1 -3.71295 -3.51527 -10.7466 
1 -1.98606 -1.811 -10.6962 
1 -3.67068 -1.81313 -8.86165 
2 -2.08679 -3.64731 -8.94588 
1 -3.79383 -3.57353 -6.91637 
1 -1.84924 -1.74879 -7.04516 
1 -0.178534 -3.45901 -10.6564 
1 -0.0938025 -3.441 -7.1452 
1 -0.209793 -1.77018 -8.87039 
1 3.57837 -3.52938 -10.8137 
1 1.66716 -1.82492 -10.6318 
1 1.75209 -3.44968 -8.83316 
2 3.49756 -1.80982 -8.99049 
1 3.67384 -3.42663 -7.24812 
1 1.57893 -1.69653 -7.0593 
2 1.68695 0.129407 -8.84071 
1 7.19314 -3.51268 -10.6699 
1 5.39899 -1.72171 -10.7324 
1 6.92359 -1.7739 -8.96985 
1 5.24677 -3.67283 -9.02226 
1 6.99414 -3.45599 -7.22526 
1 5.27043 -1.71533 -7.05227 
2 7.18309 -0.0416833 -7.13759 
2 5.31415 0.100976 -8.90888 
1 8.87727 -1.7831 -10.5489 
1 10.5702 -3.57983 -7.04258 
1 8.8318 -3.71657 -8.97584 
2 8.81717 -1.93953 -7.192 
2 10.7056 -2.06998 -9.04503 
1 12.4266 -1.91123 -7.26221 
2 10.7192 -0.0815404 -7.11801 
1 -5.52185 -12.5937 -3.45986 
1 -1.71351 -14.0225 -5.41381 
1 -3.85119 -12.5186 -5.37603 
1 0.0929536 -12.4481 -5.55467 
2 0.0664896 -14.0843 -3.5182 
1 3.60907 -12.3214 -5.43571 
1 -10.8996 -8.70573 -5.46049 
1 -8.87243 -10.4275 -5.32039 
2 -9.01508 -8.81342 -3.5705 
1 -7.15726 -10.8408 -3.40422 
1 -5.43818 -10.6983 -5.33863 
1 -6.97073 -8.85308 -5.20702 
1 -5.40604 -8.91517 -3.62499 
1 -1.90643 -12.5386 -3.58569 
2 -1.8309 -10.82 -5.41968 
1 -3.68169 -10.7684 -3.64289 
1 -3.66321 -8.92489 -5.37084 
2 -1.94265 -8.87104 -3.55366 
1 0.0684846 -9.02502 -5.46312 
2 0.00716947 -10.6272 -3.57157 
2 1.94102 -12.3411 -3.67446 
1 1.85524 -10.566 -5.47434 
1 3.59655 -10.5306 -3.58057 
1 3.55087 -8.82504 -5.48672 
1 1.79305 -8.94017 -3.55635 
1 5.13117 -12.4408 -3.59764 
2 7.09461 -10.7527 -3.65787 
1 5.33227 -10.6328 -5.43095 
1 7.16199 -8.75993 -5.48721 
2 5.33921 -8.93006 -3.65671 
1 8.92871 -10.6083 -5.39528 
2 8.91237 -8.84614 -3.68193 
1 10.7181 -8.753 -5.51982 
1 -12.66 -5.44653 -3.6355 
1 -10.8242 -6.98401 -3.54073 
1 -10.9179 -5.33385 -5.47795 
2 -8.82198 -7.0103 -5.27719 
1 -8.98274 -5.32611 -3.53249 
1 -7.1607 -7.05999 -3.39721 
1 -7.11352 -5.15508 -5.25446 
1 -5.38703 -7.10869 -5.22479 
1 -5.38197 -5.34439 -3.36201 
1 -1.9479 -7.18053 -5.33822 
1 -3.65052 -7.01168 -3.56937 
1 -3.62406 -5.23266 -5.17828 
1 -1.94272 -5.33085 -3.48836 
2 -0.0809004 -5.17053 -5.24784 
1 -0.0969822 -7.03756 -3.46818 
2 1.68702 -7.13389 -5.33566 
1 3.5829 -7.20339 -3.67844 
1 3.44488 -5.24295 -5.36367 
1 1.69558 -5.26982 -3.53481 
1 7.19914 -7.01279 -3.61053 
1 5.30083 -6.98289 -5.37948 
1 7.03124 -5.24183 -5.33469 
1 5.39703 -5.31021 -3.55148 
1 10.8367 -7.07924 -3.58631 
1 10.7166 -5.27717 -5.24633 
2 8.98304 -6.92524 -5.44881 
2 8.86321 -5.36056 -3.42294 
1 12.5571 -5.18367 -3.4247 
1 -14.2798 -3.44094 -3.33971 
1 -12.6747 -3.48642 -5.30909 
2 -12.6123 -1.60551 -3.48588 
1 -10.7435 -0.0867095 -3.63359 
1 -10.8229 -1.78626 -5.34277 
2 -10.8616 -3.71662 -3.4802 
1 -9.05173 -3.63805 -5.27985 
2 -8.96996 -1.87079 -3.42588 
2 -7.12627 -1.80325 -5.21861 
1 -7.08576 -3.68772 -3.45896 
1 -5.33118 -3.62573 -5.11986 
1 -5.35023 -1.70171 -3.44204 
1 -3.67732 -1.78089 -5.23685 
1 -1.88702 -3.45722 -5.24687 
1 -3.60477 -3.47076 -3.42415 
1 -1.88215 -1.60948 -3.54457 
1 -0.164286 -3.46684 -3.60496 
1 -0.110716 -1.68512 -5.32329 
1 -1.8668 0.00677915 -5.33553 
1 1.76007 -3.51031 -5.42793 
1 3.4 -1.60336 -5.42749 
1 3.55174 -3.49447 -3.58126 
2 1.73061 -1.79344 -3.59418 
1 3.56655 0.0900129 -3.54174 
1 7.12048 -1.87721 -5.33272 
1 7.14994 -3.47556 -3.46886 
1 5.23984 -3.44109 -5.33462 
1 5.27632 -1.73684 -3.65679 
1 5.14857 0.084015 -5.34007 
1 10.4699 -1.91017 -5.31384 
1 10.6093 -3.44148 -3.50077 
1 8.77717 -3.6631 -5.2553 
1 8.88362 -1.82778 -3.54799 
1 12.2703 -1.71724 -3.49056 
1 8.93003 -0.133344 -5.30453 
2 12.432 -3.51691 -5.19434 
2 14.0812 -3.26789 -2.99124 
2 12.4117 -0.148754 -5.33678 
2 14.0811 -0.132905 -3.53692 
2 -7.01079 -12.4915 1.61955 
1 -3.46527 -14.1597 0.351395 
1 -1.76786 -14.2151 -1.70146 
1 -1.23887 -14.3377 1.12733 
1 -3.60355 -12.4629 -1.77207 
1 -1.75175 -12.3378 0.0495342 
1 0.390523 -14.5735 -0.732366 
1 2.39087 -14.2716 -2.08211 
1 3.36861 -14.3882 0.249832 
2 1.36346 -14.1296 1.5481 
1 4.89363 -14.1389 -1.75663 
2 6.98593 -12.3982 -1.73974 
1 -10.5068 -10.5839 0.212858 
1 -10.9474 -9.08743 -1.9402 
1 -8.95679 -10.5947 -1.77858 
2 -8.75076 -10.7956 1.78151 
1 -8.91543 -8.82193 0.0226506 
2 -10.7273 -8.80086 1.90296 
1 -5.36545 -12.7006 -0.008259 
2 -7.2815 -12.3989 -1.43883 
1 -7.11093 -10.4744 -0.0471349 
2 -5.39928 -10.632 -1.71728 
2 -5.37898 -10.5407 1.70246 
1 -7.18784 -8.8526 -1.84466 
1 -7.09445 -8.85735 1.79934 
1 -5.36014 -8.78145 -0.109166 
1 -3.47353 -12.226 1.66985 
1 -3.5538 -10.6841 -0.085525 
1 -1.91945 -10.7139 -1.80058 
1 -1.84887 -10.4625 1.79149 
1 -3.62024 -8.82426 -1.82478 
1 -3.59272 -8.89077 1.79366 
1 -1.91733 -8.96526 -0.0577704 
1 -0.033718 -12.241 1.70744 
1 -0.0264474 -10.5083 0.0893277 
1 -0.0924372 -8.89852 -1.75603 
1 0.0194787 -8.93281 1.77098 
2 1.7418 -12.3253 -0.0645084 
2 -0.0439766 -12.4404 -1.67804 
1 3.48457 -12.3805 1.6702 
1 3.59257 -12.2444 -1.77579 
1 3.527 -10.5499 0.0174429 
1 1.83489 -10.5591 -1.74666 
1 1.77328 -10.5668 1.74661 
1 3.58204 -8.96878 -1.83693 
1 3.53538 -8.80079 1.80964 
1 1.79159 -8.84721 0.0137188 
1 7.10734 -12.3867 1.62104 
1 5.27833 -12.4842 0.0198741 
1 7.17145 -10.6847 -0.061675 
1 5.29807 -10.5643 -1.70971 
1 5.32858 -10.7422 1.63957 
1 7.21258 -8.87201 -1.89276 
2 7.13886 -9.07881 1.72489 
1 5.33973 -8.84183 -0.0196091 
1 9.01842 -12.0812 -0.0462519 
1 9.04003 -10.725 -2.1061 
1 10.8315 -8.80052 -1.94965 
1 10.7628 -8.99245 1.76661 
2 9.1094 -9.2322 -0.183766 
1 9.05584 -10.8071 1.99284 
1 -12.6012 -5.37866 0.0446405 
1 -12.663 -7.21536 -1.85291 
2 -10.9001 -7.29741 -0.100571 
1 -10.8168 -5.39761 -1.76065 
1 -10.7653 -5.43555 1.97829 
1 -9.0988 -7.14342 -1.75291 
1 -8.93892 -7.07246 1.75495 
1 -8.97629 -5.52089 -0.0725866 
1 -7.22303 -7.17875 -0.0512146 
1 -7.16219 -5.29561 -1.7007 
1 -5.46072 -7.12023 -1.78614 
2 -7.34781 -5.29575 1.75534 
1 -5.31926 -7.26311 1.73683 
1 -5.47436 -5.414 0.0616247 
1 -3.63604 -7.17069 0.0709005 
1 -1.85864 -7.06034 -1.68842 
1 -1.77877 -7.20553 1.87234 
1 -3.7486 -5.33379 -1.71337 
1 -3.64801 -5.50935 1.8321 
2 -1.73403 -5.31691 0.131602 
1 -0.0801209 -5.27296 -1.77967 
1 -0.0357492 -5.32595 1.78179 
1 -0.00358796 -7.1151 0.00771369 
1 3.60047 -7.1264 0.000702031 
2 1.79813 -7.2355 -1.79001 
1 1.79353 -7.1071 1.83327 
2 3.62032 -5.36869 -1.87995 
1 3.49324 -5.45056 1.78435 
1 1.75035 -5.34263 0.0640921 
1 7.18062 -7.26009 -0.0958891 
1 5.4429 -7.16377 -1.78285 
1 7.02756 -5.50845 -1.67286 
1 5.40796 -7.26039 1.76144 
2 7.21725 -5.43342 1.84798 
1 5.45081 -5.40401 0.0822688 
1 10.77 -7.27004 -0.101392 
1 10.7015 -5.34336 1.68984 
1 10.7768 -5.40145 -1.75286 
1 8.90029 -7.22501 -1.66014 
1 8.91396 -7.26026 1.62273 
1 8.93534 -5.37695 -0.0302813 
1 12.6715 -7.00095 -1.82449 
2 12.5382 -5.42568 -0.0071863 
1 12.4524 -7.17623 1.82839 
1 -14.2401 -3.59769 -0.137725 
2 -14.2428 -1.68978 -1.64778 
1 -14.2372 -1.9895 1.72309 
1 -12.4862 -3.6529 -1.72813 
1 -14.3548 -0.0575935 0.169167 
1 -12.4389 -3.73364 1.79171 
1 -12.3836 -1.92335 0.0581264 
1 -10.7922 -3.7697 -0.0387358 
1 -10.8062 -1.84278 -1.70405 
1 -10.6445 -1.81272 1.71284 
1 -8.90585 -3.64423 -1.61155 
2 -9.063 -3.57899 1.7272 
1 -8.89964 -1.78726 -0.1251 
2 -12.3755 -0.168484 1.71227 
1 -10.7133 0.0647236 0.01106 
1 -12.5865 0.0897734 -1.66155 
1 -9.09103 0.00920087 -1.75183 
1 -7.15821 -3.49325 -0.0170068 
1 -7.21897 -1.76431 -1.77029 
1 -7.21752 -1.72972 1.68172 
1 -5.3886 -3.53026 -1.69609 
2 -5.33817 -3.68536 1.78108 
2 -5.38697 -1.69544 -0.0959462 
1 -7.19942 0.133795 -0.083164 
2 -5.48095 -0.142048 1.79162 
1 -3.57447 -3.58918 0.0588774 
1 -3.54429 -1.59173 -1.75393 
2 -1.78748 -3.48879 -1.84554 
2 -3.44061 -1.68901 1.89495 
1 -1.78235 -3.61901 1.83838 
1 -1.87527 -1.82987 0.0521407 
1 -0.0702289 -1.7766 -1.78611 
1 -0.100771 -0.113295 0.14688 
1 -0.0250731 -3.50362 0.187876 
1 -1.90408 0.0366917 1.89401 
1 -0.142041 -1.81528 1.92312 
2 3.64141 -3.63856 0.0341998 
2 1.80594 -3.49662 -1.73435 
1 3.48803 -1.66469 -1.87181 
1 1.78239 -3.54409 1.87146 
1 3.66063 -1.80234 1.96147 
1 1.93689 -1.85324 0.096704 
1 1.64633 -0.0435125 -1.80875 
2 3.40244 0.0939402 0.0145394 
1 7.0566 -3.42552 -0.0332151 
1 7.01278 -1.65473 -1.77692 
1 7.12605 -1.88282 1.83881 
1 5.32647 -3.51757 -1.89345 
1 5.4458 -3.57521 1.89389 
2 5.25997 -1.78618 -0.0265117 
1 7.14282 -0.0232646 0.078854 
1 5.30219 0.0800014 1.79725 
2 12.257 0.0101816 -1.66272 
1 10.5326 -3.62774 0.0209448 
1 10.7529 -1.75875 1.94088 
1 10.6824 -1.79919 -1.7243 
1 8.83241 -3.48928 -1.71763 
1 8.9504 -3.53998 1.79784 
2 8.95833 -1.73013 0.121766 
1 12.2326 -3.47702 -1.59708 
2 12.5023 -3.56256 1.75695 
1 12.3319 -1.59998 0.205977 
2 14.1811 -3.44487 -0.156464 
1 14.3412 -1.4251 -1.48642 
1 14.286 -1.91627 1.79677 
2 -5.13889 -12.619 3.40179 
2 -2.98729 -14.0803 2.91306 
1 -0.147708 -14.2085 3.46816 
1 3.30222 -14.0723 3.18411 
1 -10.6323 -10.5871 3.50271 
1 -10.7032 -8.95307 5.38863 
2 -8.77954 -8.78967 3.56584 
2 -8.78827 -10.6811 5.24893 
1 -6.94621 -10.9699 3.74356 
1 -5.20098 -10.856 5.46136 
1 -7.03143 -8.91435 5.41243 
2 -5.44695 -8.98165 3.61251 
2 -3.15753 -12.4825 5.26529 
1 -1.67804 -12.2225 3.37266 
1 -1.70707 -10.6172 5.39571 
1 -3.57243 -10.6821 3.6566 
2 -3.55976 -9.00991 5.60206 
1 -1.74614 -8.95733 3.73127 
2 -0.0994938 -12.3765 5.10861 
1 0.0750776 -10.5241 3.56573 
1 0.0402073 -8.90728 5.39818 
1 3.23531 -12.716 5.16426 
1 1.67662 -12.348 3.46042 
1 1.64936 -10.7297 5.3765 
2 3.43393 -10.7387 3.61555 
1 3.56512 -8.97313 5.40198 
1 1.82437 -8.83349 3.62959 
1 5.20438 -12.3823 3.46959 
1 7.08579 -10.9331 3.64002 
1 5.14332 -10.9149 5.53629 
2 7.19944 -8.92017 5.46456 
2 5.32421 -8.93707 3.57296 
1 8.89143 -10.681 5.28492 
2 9.01979 -8.92442 3.55865 
2 10.6652 -8.82325 5.29501 
1 -12.3665 -5.29983 3.82205 
1 -10.6454 -7.10755 3.89563 
1 -10.6373 -5.21913 5.46388 
1 -8.74143 -7.15907 5.4763 
1 -8.93733 -5.36826 3.73705 
1 -7.02295 -6.98899 3.5844 
1 -7.141 -5.43996 5.54134 
1 -5.32552 -7.13194 5.52169 
2 -5.22448 -5.45709 3.69722 
1 -1.74296 -7.29418 5.43926 
1 -3.52012 -7.31411 3.71171 
1 -3.60653 -5.40218 5.49479 
2 -1.87736 -5.4481 3.64468 
1 0.00669857 -7.12868 3.56477 
2 0.0010308 -5.4331 5.38586 
1 1.75315 -7.13711 5.28626 
1 3.58677 -7.08242 3.63682 
1 3.52517 -5.37803 5.37769 
1 1.66022 -5.34298 3.51711 
1 7.02936 -7.25712 3.4933 
1 5.38145 -7.15793 5.35345 
2 7.16904 -5.43757 5.33078 
2 5.21831 -5.27359 3.63739 
1 10.7068 -7.06143 3.46575 
1 10.8639 -5.46335 5.43124 
1 8.89948 -7.16442 5.4736 
1 8.93466 -5.62872 3.56009 
2 12.5397 -5.44741 3.54155 
1 -14.1447 -3.61515 3.50162 
1 -12.5759 -3.51354 5.45236 
1 -12.3595 -1.8655 3.54464 
1 -10.7167 -1.91515 5.44693 
1 -10.7119 -3.60083 3.68551 
1 -8.99176 -3.65786 5.57263 
2 -9.12845 -1.76307 3.6463 
1 -8.87724 -0.053895 5.4166 
1 -7.14271 -1.73947 5.45808 
2 -7.20923 -3.61375 3.73125 
1 -5.44037 -3.54471 5.42649 
1 -5.48295 -1.92212 3.54685 
1 -7.32717 0.0350987 3.54306 
2 -3.74276 -1.77653 5.33746 
2 -1.84093 -3.6295 5.44721 
1 -3.64839 -3.63601 3.57448 
1 -1.79443 -1.768 3.69227 
1 0.0189451 -3.69259 3.54968 
1 -1.80016 0.0167107 5.34443 
1 -3.74904 0.0264445 3.61966 
1 -0.0543968 -1.90344 5.34027 
1 1.76571 -3.57969 5.16542 
1 3.65283 -1.84882 5.36165 
1 3.48291 -3.56445 3.60709 
1 1.82367 -1.75753 3.65837 
1 7.08899 -1.80474 5.37747 
1 7.23442 -3.50498 3.64569 
1 5.36713 -3.60953 5.29846 
1 5.38749 -1.7766 3.6319 
1 8.82388 -0.00460231 5.41656 
2 10.7226 -1.73376 5.39806 
1 10.6667 -3.75109 3.57493 
2 9.01855 -3.68643 5.41984 
1 8.90436 -1.81747 3.68581 
2 12.5864 -1.84725 3.64338 
1 12.63 -3.71918 5.33194 
1 14.4696 -3.68332 3.54756 
1 14.2956 -1.76035 5.4255 
2 14.3345 0.00729544 3.50157 
1 -1.511 -12.4545 7.1962 
1 -8.84918 -8.99188 7.09211 
1 -5.26543 -8.99951 10.673 
1 -5.13473 -10.6058 8.94813 
1 -7.01121 -10.8164 7.18443 
2 -7.20492 -8.86755 8.90405 
1 -5.40387 -8.9478 7.23809 
2 -1.66717 -8.82665 10.8361 
1 -1.79408 -10.7839 9.14588 
1 -3.39784 -10.9289 7.29829 
1 -3.41337 -8.85416 8.91279 
1 -1.72007 -8.93275 7.27158 
1 0.0394608 -8.94354 9.03216 
1 -0.0190258 -10.6817 7.24018 
1 1.64928 -12.4021 7.06411 
1 1.77616 -10.7026 8.92284 
1 3.44977 -10.7549 7.20844 
1 3.59023 -8.93192 8.92518 
1 1.72157 -9.00639 7.18055 
1 1.79349 -8.99059 10.7112 
1 6.96485 -10.7064 7.22545 
1 5.33375 -9.06489 10.5996 
1 5.09796 -10.7481 8.94184 
1 7.08669 -9.02555 8.84962 
1 5.29736 -8.93331 7.02183 
1 8.90862 -8.98572 7.16497 
1 -10.7217 -5.46524 8.99649 
2 -10.6616 -7.10448 6.96151 
1 -9.06666 -7.35926 8.92752 
1 -8.91975 -5.35982 7.29958 
1 -8.78323 -5.46401 10.6381 
1 -7.0135 -7.21448 10.661 
1 -7.18616 -5.38687 8.94231 
1 -5.35777 -7.17785 8.97384 
1 -7.26246 -7.21175 7.2829 
1 -5.34008 -5.34001 7.15873 
1 -5.38941 -5.45364 10.9129 
2 -3.64987 -7.28234 10.9921 
1 -1.83047 -5.3674 10.7616 
1 -1.78217 -7.28628 8.97573 
2 -3.65252 -5.56358 9.12488 
1 -3.50004 -7.14308 7.23894 
1 -1.80917 -5.54604 7.16401 
1 0.00299886 -7.23255 7.33479 
1 0.127032 -7.20254 10.6809 
2 -0.0502247 -5.45089 9.04118 
1 3.60731 -7.31393 10.7567 
1 1.92479 -5.31896 10.6231 
1 1.85547 -7.29017 8.97489 
1 3.6203 -5.36559 8.99377 
1 3.59685 -7.19918 7.06597 
2 1.80363 -5.42658 7.17461 
1 7.0666 -7.1634 10.6288 
1 5.3176 -5.43684 10.6546 
1 5.26709 -7.24972 8.79308 
1 7.08325 -5.42637 8.97674 
1 7.15563 -7.17016 7.25778 
2 5.34993 -5.43633 7.21077 
1 8.91665 -5.4495 10.6346 
1 10.6294 -5.35013 8.95817 
1 10.6381 -7.10361 7.21743 
1 8.93001 -7.25146 8.97448 
1 8.85993 -5.54536 7.27909 
2 -12.5375 -1.57571 7.05892 
1 -8.7969 -1.7937 10.6982 
1 -10.5568 -3.45079 10.5105 
2 -10.9734 -3.66896 7.44046 
1 -8.81336 -3.64274 8.94955 
2 -8.92584 -1.87769 7.26107 
1 -10.7232 -1.56781 9.00346 
1 -7.13424 -3.66687 10.7047 
1 -5.36148 -1.81229 10.7952 
1 -7.03117 -1.92349 9.01289 
2 -5.34292 -3.68888 8.9472 
1 -7.15429 -3.56536 7.1135 
1 -5.41473 -1.77204 7.18191 
1 -5.44107 -0.104081 8.96017 
1 -3.60856 -3.63928 10.818 
1 -1.75488 -1.78469 10.6652 
1 -3.57508 -1.65832 9.00259 
2 -1.94496 -3.6117 8.92494 
1 -3.73496 -3.54506 7.23562 
1 -1.8633 -1.85935 7.13424 
1 -0.126398 -3.45845 10.6477 
2 0.0668195 -3.5785 7.20586 
1 -1.71501 0.00454544 8.92391 
1 0.0693422 -0.0751853 10.6187 
1 -3.6427 -0.0231058 10.7066 
1 0.0445067 -1.75121 8.86271 
1 1.81495 -1.85217 7.11113 
2 3.60487 -3.49968 7.22671 
1 1.89185 -1.75619 10.65 
1 1.87782 -3.58895 9.02154 
1 3.64129 -1.68868 8.85328 
1 3.68082 -3.41683 10.6687 
1 3.4183 -0.0751379 7.15537 
2 0.0034035 -0.0349892 7.15168 
1 1.80585 0.0898995 8.85783 
1 3.52296 0.0427597 10.5022 
1 6.95803 -0.14273 7.13257 
1 7.07084 -3.60093 7.09734 
1 5.25174 -3.53005 9.02082 
1 5.37227 -1.84845 7.16132 
1 7.00705 -1.85246 8.95995 
1 7.09593 -3.57446 10.6558 
1 5.43364 -1.65785 10.6762 
1 5.42299 -0.14913 8.96408 
2 10.6161 -1.99134 8.92419 
1 8.85641 -1.92827 10.7969 
1 8.81621 -1.71723 7.12567 
1 10.7944 -3.69203 7.14699 
1 8.79744 -3.55952 8.86968 
2 12.6223 -1.84479 7.17658 
1 0.215833 -8.68332 12.5759 
1 -1.51369 -7.04358 12.5083 
1 -3.3991 -5.32707 12.5724 
1 3.69869 -5.26645 12.3834 
1 2.21335 -4.71347 14.0676 
1 0.0381188 -6.43831 14.1908 
2 1.83934 -6.7709 12.634 
1 0.0772027 -5.16919 12.2078 
1 -5.40042 -3.48677 12.4926 
1 -7.13251 -1.79691 12.4123 
2 0.116899 -3.57081 14.0123 
1 -3.57986 -1.77737 12.5981 
1 -1.81007 -3.46805 12.525 
1 -1.84993 -1.66266 14.2476 
1 0.0608904 -1.75503 12.4412 
1 0.0247236 -0.107819 14.239 
1 -3.46527 0.0992018 14.2413 
1 -1.63549 -0.00563745 12.4275 
1 1.90563 -1.90631 14.1436 
1 1.80279 -3.46107 12.2308 
1 3.55708 -1.6243 12.4009 
1 1.83863 -0.0171568 12.3095 
1 3.55284 -0.0717606 14.1626 
1 7.13651 -1.69786 12.5724 
2 5.33998 -3.44935 12.3923 
1 5.33429 -0.0520913 12.411 
1 -7.40032 1.56212 -12.2296 
1 -5.55348 3.51541 -12.4661 
2 -1.84648 1.79314 -14.3269 
2 -3.80402 1.81191 -12.6862 
1 -1.9212 3.70749 -12.3639 
2 -0.119334 1.89229 -12.4376 
2 -1.80244 0.102234 -12.3357 
1 -0.148942 3.63288 -14.3443 
2 0.061665 0.168789 -14.4731 
1 3.30398 3.70818 -14.222 
1 3.46903 1.88384 -12.3983 
2 1.71531 3.7395 -12.4888 
1 1.77179 1.91613 -14.3213 
2 1.65838 0.0650434 -12.3771 
1 5.07006 2.02718 -14.2057 
1 7.02378 1.90588 -12.5262 
1 5.25723 3.77025 -12.5556 
2 5.11024 0.0811504 -12.4298 
1 -2.12742 7.27909 -12.5419 
1 -3.71023 5.32686 -12.3981 
1 -0.213176 5.44912 -12.4534 
1 1.72408 6.79458 -12.4992 
1 3.70006 5.53556 -12.4255 
1 -12.2378 1.79001 -7.41936 
1 -11.2873 2.9021 -9.41329 
1 -9.17082 1.61484 -10.5905 
2 -8.99956 3.81434 -9.12969 
2 -9.48909 1.95383 -7.53114 
1 -10.9941 3.97351 -7.13461 
1 -11.0814 0.532757 -9.39924 
1 -7.39084 3.55187 -10.896 
2 -5.4411 1.67464 -10.6721 
2 -7.31684 1.86799 -8.88303 
1 -5.45975 3.66233 -8.96462 
1 -7.2829 3.68615 -7.18935 
2 -5.40059 1.89328 -7.03352 
1 -7.25077 -0.10052 -10.595 
1 -7.1036 0.0921506 -7.05914 
1 -3.71897 3.56887 -10.7449 
1 -1.96535 1.81111 -10.6979 
1 -3.65258 1.81033 -8.86633 
2 -1.98778 3.61703 -9.08229 
2 -3.70173 3.70738 -7.06716 
1 -1.86753 1.7585 -7.11296 
1 -0.197161 3.75591 -10.7451 
1 -0.291635 3.54122 -7.06686 
1 -0.127131 -0.0270792 -10.4584 
1 -3.55901 0.0663852 -10.6299 
1 -1.88993 0.0861055 -8.77791 
1 -3.68579 -0.00554084 -7.02235 
1 -0.0721638 0.0595419 -7.07172 
1 -0.127789 1.81338 -9.0578 
1 3.5733 3.7218 -10.784 
1 1.75548 1.94898 -10.7448 
1 3.49304 1.91433 -8.95533 
2 1.70437 3.72737 -8.86863 
1 3.52281 3.69223 -7.10864 
2 1.64618 1.88064 -7.15177 
1 3.48241 0.095969 -10.6603 
1 3.54617 -0.0217901 -7.08492 
2 6.92054 3.50132 -10.7287 
1 5.24597 1.92418 -10.6215 
1 6.98341 1.88674 -8.79523 
1 5.26707 3.59235 -8.88812 
1 7.08846 3.55785 -7.18136 
1 5.18103 1.80529 -7.1273 
2 7.2125 0.0811268 -10.8124 
1 8.87898 1.99124 -10.5903 
2 10.6766 1.81259 -8.80585 
1 8.85543 3.6225 -8.81501 
1 8.83404 1.80316 -7.14804 
1 10.6395 3.73172 -7.12571 
1 8.83697 -0.0628211 -8.90578 
2 12.4587 1.84883 -6.94342 
1 10.5638 -0.0397032 -10.4162 
1 -10.7166 5.60954 -8.94295 
1 -10.7314 7.24693 -7.11043 
1 -9.02393 7.38614 -8.91571 
1 -9.07084 5.46433 -7.16474 
1 -8.78626 5.69736 -10.7343 
2 -5.68495 5.40225 -10.7121 
1 -7.18055 7.49646 -10.5823 
1 -7.20869 5.42121 -8.8018 
1 -5.42365 7.31856 -8.7876 
2 -7.14675 7.19271 -7.02164 
1 -5.56289 5.36974 -7.0666 
2 -3.89979 7.2974 -10.7596 
1 -2.00329 5.56377 -10.6528 
1 -1.9736 7.23638 -8.88453 
2 -3.76038 5.53495 -8.92408 
1 -3.59859 7.16122 -7.12927 
1 -1.97354 5.4904 -7.09551 
1 -0.0226303 7.20202 -10.7876 
2 -0.140009 5.41726 -8.88309 
1 -0.0507574 7.22003 -6.96811 
1 3.44933 7.16946 -10.6304 
1 1.71674 5.5012 -10.6358 
2 1.83568 7.10968 -8.87704 
1 3.61682 5.43634 -8.89449 
1 3.5536 7.21002 -7.11023 
1 1.63581 5.42137 -7.04802 
1 7.17574 7.16374 -10.4324 
1 5.46448 5.5728 -10.7146 
1 7.09817 5.26093 -8.75777 
1 5.25707 7.15618 -8.75334 
1 7.11959 7.16685 -7.23078 
1 5.27575 5.37489 -7.15838 
1 8.7133 5.19315 -10.7222 
1 10.5829 5.22683 -9.00442 
1 8.95014 7.1446 -8.91407 
1 8.86111 5.37117 -7.19289 
2 10.7219 6.87279 -7.16628 
1 -8.93083 9.04049 -6.93424 
1 -5.43961 9.222 -10.3834 
1 -5.18221 10.9356 -8.38398 
1 -7.08752 9.19131 -8.74249 
1 -5.45066 8.93212 -7.00722 
1 -7.22985 10.8767 -6.85697 
2 -1.81586 8.85133 -10.6872 
2 -1.81823 10.7297 -8.85558 
1 -3.53607 10.7201 -6.92966 
1 -3.65682 9.07842 -8.73298 
1 -1.75797 8.92412 -7.0996 
1 -0.123697 10.716 -6.97993 
1 -0.0775856 12.363 -8.77255 
1 -0.118655 8.83789 -8.8676 
1 1.74811 8.95071 -10.5342 
1 1.61752 10.7578 -8.80364 
1 3.55126 10.7399 -7.08474 
1 3.59632 8.97053 -8.86985 
1 1.696 8.85919 -7.10124 
2 1.86733 12.4312 -7.01528 
1 5.25324 8.94727 -10.5311 
1 5.28901 10.7227 -8.77894 
1 7.19482 10.8008 -7.13045 
1 7.03967 8.9613 -8.8385 
1 5.37382 9.0018 -7.0611 
1 8.91638 8.7746 -7.13069 
1 -1.87976 12.4987 -6.90718 
2 -14.1913 3.46716 -3.28776 
1 -12.7354 0.0375195 -5.35479 
1 -14.412 0.128321 -3.49948 
2 -12.6457 3.62471 -5.23658 
1 -12.4966 1.70355 -3.50036 
2 -10.8692 1.8192 -5.33953 
1 -10.8536 3.6386 -3.5317 
1 -9.1373 3.65215 -5.42603 
2 -9.12202 1.86701 -3.49661 
2 -8.99605 0.136693 -5.53306 
1 -7.30284 2.00171 -5.49722 
2 -7.19436 3.57579 -3.4465 
1 -5.40917 3.68738 -5.31797 
1 -5.4276 1.77168 -3.68148 
1 -5.41145 -0.0321769 -5.25153 
2 -7.23935 0.200971 -3.6134 
1 -3.56079 1.86862 -5.33217 
1 -1.94582 3.58002 -5.331 
1 -3.63749 3.54007 -3.49752 
1 -1.82164 1.77248 -3.53257 
1 -0.127974 1.80369 -5.21715 
1 -0.193817 3.65841 -3.56068 
1 -3.54312 0.118222 -3.45958 
1 -0.103417 -0.0714747 -3.58449 
1 3.5376 1.92071 -5.36777 
2 1.66853 3.74439 -5.36367 
1 3.55766 3.58762 -3.53965 
2 1.69954 1.74274 -3.47709 
1 1.63945 0.0858164 -5.43178 
1 6.92463 1.88356 -5.44076 
1 6.95926 3.51109 -3.66474 
1 5.2724 3.50687 -5.40029 
1 5.21011 1.78647 -3.54827 
1 7.13462 -0.00286925 -3.61764 
1 10.5222 1.63852 -5.34235 
1 10.6036 3.53763 -3.72505 
2 8.8966 3.49823 -5.46752 
1 8.68967 1.74275 -3.65092 
1 12.3588 1.73677 -3.64278 
1 10.5824 0.0349602 -3.52024 
1 12.3661 3.52241 -5.24682 
1 14.123 3.37673 -3.43959 
1 -12.6774 5.39511 -3.5172 
1 -10.7715 7.07623 -3.56484 
1 -10.8147 5.38917 -5.29926 
2 -8.8443 7.19564 -5.16984 
1 -9.00335 5.29305 -3.60173 
1 -7.13788 7.22673 -3.44637 
1 -7.25955 5.27123 -5.35079 
1 -5.53091 7.11616 -5.22636 
1 -5.42249 5.38194 -3.58929 
1 -1.93588 7.10457 -5.20905 
1 -3.63059 7.19644 -3.53379 
1 -3.68873 5.40479 -5.22173 
1 -2.0771 5.35688 -3.50976 
2 -0.0741796 7.21661 -3.52009 
1 -0.17006 5.46761 -5.32065 
1 1.85631 7.06701 -5.27937 
2 3.52852 7.15611 -3.46617 
1 3.52487 5.32781 -5.35449 
1 1.6384 5.40996 -3.54883 
1 7.11539 7.09511 -3.62249 
1 7.05211 5.21801 -5.46207 
2 5.34133 7.06535 -5.46753 
1 5.28574 5.25736 -3.62947 
1 10.4014 6.93874 -3.49295 
1 10.6612 5.26058 -5.30004 
1 8.70204 7.02047 -5.35877 
1 8.73722 5.26972 -3.62574 
2 12.2282 5.30185 -3.3843 
1 -10.7699 8.89712 -5.07767 
1 -9.0907 10.7584 -5.12091 
1 -8.93585 8.9081 -3.42003 
1 -10.7927 10.5694 -3.45312 
1 -7.2188 10.8789 -3.60009 
1 -5.47582 10.6795 -5.24868 
1 -7.21079 9.07396 -5.13374 
1 -5.41474 8.9291 -3.44375 
1 -5.41351 12.4621 -3.56042 
1 -1.81518 10.6617 -5.25846 
1 -3.69743 10.8026 -3.51003 
2 -3.61083 8.94903 -5.33606 
1 -1.94309 8.93684 -3.48297 
1 -1.77462 12.5259 -3.56634 
1 -3.66349 12.3682 -5.32854 
1 -0.0379662 8.94342 -5.31377 
1 -0.0947405 10.6217 -3.55361 
2 1.78381 10.7167 -5.20676 
1 3.57244 10.6809 -3.43664 
1 3.53026 8.88497 -5.37863 
1 1.80587 8.93397 -3.45214 
1 1.57052 12.3504 -3.4846 
1 -0.135006 12.453 -5.29022 
1 7.19397 10.7147 -3.65733 
2 5.37607 10.8811 -5.28144 
1 7.22525 9.01096 -5.58391 
2 5.39832 8.96467 -3.57728 
1 10.5553 8.66485 -5.30094 
1 8.99532 10.5819 -5.31254 
1 8.84775 8.82711 -3.54495 
1 -3.50774 14.2682 -3.6898 
1 -0.148366 14.2984 -3.62107 
1 3.65156 12.5637 -5.30694 
2 1.7752 14.0173 -5.03085 
1 3.68206 14.2859 -3.45872 
1 5.61163 12.5959 -3.53236 
1 -14.3744 3.43576 0.0205119 
1 -14.5063 1.63862 -1.66512 
1 -14.2218 1.79044 1.76141 
2 -12.5484 3.6532 1.9141 
1 -12.4309 3.4323 -1.6823 
1 -12.4721 1.76623 -0.00699002 
2 -10.756 3.63432 0.0495073 
1 -10.7554 1.78942 -1.72648 
1 -10.8201 1.90468 1.93163 
1 -8.91473 3.60756 -1.74156 
1 -8.91426 3.62204 1.6641 
1 -8.99608 1.86351 -0.0994936 
2 -8.99372 0.0339698 1.70989 
1 -7.12017 3.63988 -0.07263 
1 -7.1428 1.81744 -1.7622 
1 -7.31083 1.82767 1.66688 
1 -5.37017 3.52599 -1.76035 
1 -5.47825 3.52061 1.74452 
1 -5.51036 1.80837 -0.00822796 
1 -5.43224 0.160369 -1.80646 
2 -3.70211 3.50052 -0.00964116 
1 -3.57349 1.73981 -1.74505 
2 -1.8529 3.52195 -1.7041 
1 -3.67673 1.79468 1.77576 
1 -1.97435 3.56607 1.81219 
1 -1.69895 1.80186 0.0763939 
1 -0.178239 1.71265 -1.83452 
1 -0.0546624 3.70811 0.101095 
1 -3.61151 0.167237 0.0502598 
1 -0.0905727 1.86109 1.83895 
1 -1.82059 0.136536 -1.68319 
2 3.526 3.60425 -0.0286629 
1 3.51648 1.81637 -1.82908 
2 1.68045 3.68017 -1.83551 
1 3.56493 1.81842 1.9017 
1 1.73208 3.72526 1.81624 
2 1.46142 1.84004 0.076398 
2 1.70619 -0.0565641 1.91207 
1 5.2567 0.0980858 -1.74447 
1 7.15504 3.61918 0.0197186 
1 7.06407 1.6323 -1.8325 
1 7.13686 1.85699 1.8829 
1 5.3503 3.63392 -1.78937 
1 5.51563 3.64153 1.90835 
2 5.39831 1.89315 0.0603009 
1 8.91861 -0.0736674 -1.74574 
1 10.5296 0.117542 0.146278 
1 12.4255 0.160476 1.83808 
1 10.5464 3.53939 -0.0706449 
1 10.6423 1.86274 1.82961 
2 10.4867 1.78836 -1.86929 
1 8.76695 3.45293 -1.85669 
1 8.84967 3.56473 1.72836 
1 8.83985 1.76763 0.0253985 
2 8.81407 0.0548563 1.89975 
1 12.3384 3.32338 -1.74536 
1 12.4621 3.56517 1.7959 
1 12.4023 1.81743 0.153747 
1 14.1441 3.56122 -0.167544 
2 14.1918 1.60265 -1.81022 
1 14.2046 1.98468 1.90428 
1 14.2872 0.0631388 0.366664 
1 -12.6366 5.34959 -0.140231 
1 -12.4861 6.90393 1.85655 
1 -12.4665 7.04141 -1.81083 
1 -10.8122 7.06675 -0.052215 
1 -10.7922 5.32678 -1.87486 
1 -10.6628 5.23427 1.82574 
1 -8.98526 6.96019 -1.89106 
2 -9.05957 7.10141 1.68698 
1 -8.96936 5.31519 -0.123098 
1 -7.1593 7.22168 0.0393405 
1 -7.08712 5.46321 -1.73953 
2 -5.42051 7.23781 -1.66787 
1 -7.16546 5.32908 1.57847 
1 -5.28049 7.17844 1.7961 
1 -5.38289 5.39642 0.117105 
1 -3.50279 7.23683 0.0514562 
1 -1.94501 7.1346 -1.73447 
1 -1.7231 7.21372 1.81913 
1 -3.7011 5.35865 -1.80633 
1 -3.63579 5.38229 1.88625 
2 -1.96236 5.30629 -0.00273869 
1 -0.00163372 5.53842 1.73117 
1 -0.18863 5.33298 -1.90061 
1 -0.161347 7.15638 -0.0359779 
1 3.59119 7.21198 -0.129112 
1 1.59996 7.14088 -1.608 
2 1.82022 7.1585 1.66815 
1 3.45124 5.45984 -1.8673 
2 3.66816 5.4816 1.83961 
1 1.78922 5.37667 0.0746774 
1 7.2471 7.12855 0.102437 
1 7.04863 5.26928 -1.7947 
2 5.51252 7.09655 -1.66621 
1 7.22124 5.35606 1.85417 
1 5.51577 7.15167 1.73758 
1 5.51591 5.28992 0.121439 
1 10.5293 7.11905 -0.428359 
1 10.7561 5.28902 1.5775 
1 10.4813 5.12357 -1.86685 
1 8.69442 7.10375 -1.89485 
2 9.1394 7.17608 1.62096 
1 8.92777 5.28004 -0.103117 
2 12.2227 7.24106 1.61711 
1 12.3284 7.14183 -1.84671 
1 12.3173 5.22778 -0.194935 
2 -8.91697 10.6676 -1.64881 
1 -9.09826 10.7281 1.56174 
2 -10.676 8.85032 -1.66336 
1 -10.9037 9.0062 1.51461 
1 -8.9091 8.87955 -0.0944553 
1 -7.19838 10.6928 0.0802098 
1 -5.39381 10.7536 1.74328 
1 -5.45659 10.6567 -1.71458 
1 -7.19037 8.88503 -1.73785 
1 -7.23935 8.96368 1.67615 
1 -5.44008 9.02611 0.0266712 
1 -7.16079 12.4783 1.79681 
1 -3.46938 10.7558 -0.0109324 
2 -1.71497 10.9399 1.96223 
1 -1.87378 10.699 -1.7511 
1 -3.67668 8.97575 -1.75249 
2 -3.58841 9.06331 1.80197 
1 -1.82786 8.90649 0.0697041 
1 -0.00982391 8.94749 1.74609 
1 -1.76408 12.5639 -0.1393 
1 -3.46067 12.5018 -1.85765 
2 -0.0435943 9.00753 -1.67445 
1 -0.0255425 12.4926 -1.81331 
1 -0.134035 10.81 0.0464284 
1 3.55147 10.7169 0.0192628 
1 1.82183 10.7595 1.73319 
1 1.85374 10.7424 -1.76437 
1 3.42317 8.9096 -1.73718 
1 3.61717 8.95635 1.74737 
1 1.77717 8.93681 -0.0328101 
2 1.70382 12.5497 -0.0445138 
1 7.21564 10.6928 0.0365677 
1 5.30506 10.708 1.66036 
2 5.51339 10.7073 -1.76204 
1 7.20598 8.93578 -1.73174 
1 7.16197 8.99847 1.72974 
2 5.4071 8.90451 0.00381082 