ITEM: TIMESTEP
1340000
ITEM: NUMBER OF ATOMS
1289
ITEM: BOX BOUNDS pp pp pp
-100 100
-100 100
-100 100
ITEM: ATOMS type x y z 
1 -1.78771 -6.91925 -12.3222 
1 -3.62704 -5.09646 -12.4981 
1 -0.0393705 -5.35696 -12.4542 
1 1.65705 -6.99309 -12.3814 
1 3.5396 -5.24746 -12.6065 
1 -7.46558 -1.79442 -12.2238 
2 -5.61665 -3.52368 -12.2709 
1 -5.61937 0.0165777 -12.4443 
2 -1.88366 -1.7351 -14.4469 
2 -3.88267 -1.77376 -12.5026 
1 -1.88375 -3.45855 -12.4566 
1 0.0394189 -3.53435 -14.1487 
2 5.22719 -3.4046 12.3927 
1 -0.0992701 -1.78815 -12.478 
2 3.17883 -3.50906 -14.2114 
1 1.71831 -3.49053 -12.4385 
1 3.43248 -1.80851 -12.4156 
1 1.6446 -1.71096 -14.3123 
2 -0.0501651 0.0838233 7.18006 
1 4.97782 -1.83066 -14.3865 
2 6.8921 -1.66038 -12.6414 
2 5.25043 -3.53069 -12.5438 
1 -1.79505 -12.3969 -7.01765 
1 -9.19042 -8.91461 -6.99066 
2 -5.19291 -10.6598 -8.72755 
1 -5.42068 -8.96395 -10.5013 
1 -7.16841 -9.03504 -8.78095 
1 -5.38228 -8.83428 -7.00157 
1 -7.14987 -10.7863 -6.98763 
1 -2.01532 -10.7535 -8.74334 
1 -1.87363 -8.93947 -10.6961 
1 -3.58545 -10.6539 -6.87536 
2 -3.59763 -8.83124 -8.84041 
1 -1.8927 -8.79141 -7.067 
1 -0.258895 -10.5761 -10.5029 
1 -0.135246 -8.80425 -8.86024 
2 -0.0583165 -10.5584 -7.10855 
1 1.40429 -12.3998 -7.19356 
1 1.65754 -9.02098 -10.9159 
2 1.63734 -10.5621 -8.92285 
1 3.43958 -10.729 -7.27002 
2 3.52421 -8.86522 -9.07863 
1 1.78505 -8.83216 -7.2066 
1 5.1827 -10.6455 -9.00529 
1 6.9412 -8.85594 -8.94099 
1 5.241 -8.84071 -7.24631 
1 7.00027 -10.6821 -7.24836 
1 5.3374 -8.73008 -10.7712 
1 8.85688 -8.97106 -7.29404 
1 -10.8603 -5.20919 -8.7101 
1 -9.08268 -5.42415 -10.2436 
1 -9.14719 -7.16224 -8.69541 
2 -8.93872 -5.26228 -7.04278 
2 -10.9184 -7.0896 -6.80762 
1 -7.28444 -7.1601 -10.4203 
1 -5.63341 -5.30701 -10.6862 
1 -7.19906 -5.27711 -8.8488 
1 -5.43372 -7.21078 -8.87652 
2 -7.2476 -7.08208 -7.06714 
1 -5.38931 -5.3299 -7.16391 
2 -3.71893 -7.08305 -10.7139 
1 -1.80092 -5.1738 -10.6927 
1 -1.94817 -7.05094 -9.07331 
1 -3.72353 -5.39361 -8.97455 
1 -3.76593 -7.15282 -7.01509 
2 -2.13246 -5.35263 -7.10806 
2 -0.167235 -5.27186 -8.95487 
1 -0.0914131 -7.08639 -10.681 
2 -0.170301 -7.11329 -7.16252 
2 3.51945 -7.0283 -10.8297 
1 1.75237 -5.25938 -10.7252 
1 1.70664 -7.1745 -9.13825 
1 3.48647 -5.31598 -9.10173 
1 3.59694 -7.018 -7.31264 
2 1.8039 -5.29356 -7.30237 
1 7.10312 -6.87491 -10.8276 
1 5.31108 -5.38592 -10.8241 
1 5.33556 -7.09737 -8.99489 
1 7.09779 -5.36168 -8.83258 
1 6.91786 -7.02868 -7.16182 
1 5.25611 -5.21464 -7.19672 
1 9.0324 -5.29749 -10.6336 
1 10.6473 -5.42091 -8.97898 
1 10.7899 -7.18475 -7.06762 
2 8.82165 -7.09034 -8.78279 
1 9.07284 -5.28928 -7.22662 
1 -12.5416 -1.68429 -6.9241 
1 -10.7597 -1.73902 -8.61792 
1 -9.07048 -1.66666 -10.4487 
1 -10.842 -3.56247 -6.90222 
1 -9.10051 -3.51003 -8.6934 
1 -9.07454 -1.80115 -6.97345 
1 7.12925 -1.69364 12.5404 
2 -0.163602 -3.844 13.891 
1 -7.41265 -3.41725 -10.4918 
1 -5.50059 -1.61091 -10.6273 
1 -7.22921 -1.71943 -8.75739 
1 -5.45037 -3.45881 -9.0059 
1 -7.15841 -3.56097 -7.10195 
1 -5.45492 -1.72311 -7.11331 
1 -5.41083 0.118441 -8.9099 
1 -7.37093 -0.0699752 -10.669 
1 -3.67755 -3.52171 -10.6416 
1 -1.98454 -1.78847 -10.6647 
1 -3.63696 -1.6656 -8.90038 
2 -1.89701 -3.56918 -8.84626 
1 -3.78006 -3.46329 -7.18744 
1 -1.93143 -1.73062 -7.13071 
1 -0.0546744 -3.42857 -7.1609 
1 3.50151 -1.78243 12.6952 
1 1.67018 -3.63861 12.2678 
1 -0.16355 -3.51365 -10.7458 
1 -1.88481 0.0018446 -8.97796 
1 8.68666 0.0568031 -1.77462 
1 -0.104313 -1.70403 -8.76596 
1 3.48331 -3.54256 -10.8278 
1 1.56405 -1.80194 -10.6076 
1 1.63961 -3.42355 -8.97993 
2 3.61677 -1.75454 -9.04863 
1 3.55432 -3.51065 -7.17517 
1 1.71795 -1.77175 -7.04848 
1 1.63344 -1.89832 14.3333 
1 3.06812 -0.0547806 14.3888 
1 7.06826 -3.6957 -10.7606 
1 5.31318 -1.78843 -10.8878 
1 7.05615 -1.91127 -8.99562 
1 5.28067 -3.67942 -9.04782 
1 7.10078 -3.57112 -7.14181 
1 5.4958 -1.77534 -7.20207 
1 -1.53183 -1.76619 14.1353 
1 -1.82507 -3.6591 12.2883 
1 8.7513 -2.08885 -10.9884 
1 10.8196 -3.56455 -7.19674 
1 8.91707 -3.58377 -9.00459 
2 8.79273 -1.8993 -7.2424 
2 10.4305 -1.78017 -9.07197 
1 -3.5075 -1.81528 12.6117 
1 0.0322523 -1.72178 12.397 
1 12.2789 -1.6167 -7.35619 
1 -5.36951 -12.6319 -3.45354 
1 -1.59794 -14.1627 -5.2287 
1 -3.66794 -12.5084 -5.27663 
2 0.043914 -14.1668 -3.35442 
1 0.0931429 -12.4385 -5.21875 
1 5.13271 -12.5659 -3.56263 
1 -10.9254 -8.80083 -4.99728 
1 -9.19402 -10.6068 -5.14051 
2 -8.93269 -8.93206 -3.31603 
1 -7.24448 -10.79 -3.58238 
1 -5.33545 -10.7413 -5.18654 
1 -7.34529 -9.03185 -5.25435 
1 -5.57926 -9.08634 -3.48425 
1 -1.8413 -12.5035 -3.45394 
2 -1.78856 -10.5976 -5.24523 
1 -3.57357 -10.736 -3.40993 
1 -3.75242 -8.88692 -5.16251 
2 -1.85126 -8.85101 -3.35993 
1 3.57847 -12.5236 -5.67014 
1 0.0258954 -8.8469 -5.27695 
2 -0.0089355 -10.5998 -3.45866 
2 2.03409 -12.5027 -3.6289 
1 1.85102 -10.7206 -5.40995 
1 3.54702 -10.6648 -3.70156 
1 3.47153 -8.82146 -5.55494 
1 1.74242 -8.94872 -3.57793 
2 6.89414 -10.7141 -3.67516 
1 5.30631 -10.7953 -5.60078 
1 7.01058 -8.83764 -5.53538 
2 5.25973 -8.88075 -3.78549 
1 8.7408 -10.697 -5.49658 
2 8.7521 -8.80117 -3.67602 
1 10.6089 -8.90177 -5.3586 
1 -12.5378 -5.38477 -3.33379 
1 -10.7108 -7.06408 -3.41207 
1 -10.7827 -5.27267 -5.19254 
2 -8.95021 -7.1823 -5.11919 
1 -8.86444 -5.34669 -3.29086 
1 -7.14282 -7.12834 -3.32163 
1 -7.13995 -5.40508 -5.19557 
1 -5.48157 -7.16401 -5.20054 
1 -5.39688 -5.33817 -3.49602 
1 -1.91479 -7.11115 -5.29167 
1 -3.6833 -7.1718 -3.48495 
1 -3.6458 -5.26074 -5.18447 
1 -1.82427 -5.37871 -3.58788 
2 -0.106425 -5.12464 -5.35934 
1 -0.0457456 -7.06007 -3.70328 
2 1.75117 -7.0544 -5.37322 
1 3.65519 -7.04619 -3.51319 
1 3.492 -5.30256 -5.36398 
1 1.70942 -5.27989 -3.52581 
1 6.91917 -7.15195 -3.56462 
1 5.21558 -6.97487 -5.46735 
1 7.05425 -5.3824 -5.43249 
1 5.33611 -5.24345 -3.70834 
1 10.6906 -7.11062 -3.55164 
1 10.7774 -5.27335 -5.33184 
2 8.82196 -7.08674 -5.58286 
2 8.87597 -5.40561 -3.61919 
1 12.6775 -5.22675 -3.36484 
1 -14.3233 -3.56669 -3.36682 
1 -12.5285 -3.48071 -5.15105 
2 -12.6084 -1.69768 -3.47212 
1 -10.8231 -1.66939 -5.30204 
2 -10.7475 -3.58835 -3.49291 
1 -8.84897 -3.57285 -5.24177 
2 -9.00038 -1.72357 -3.38593 
2 -9.06482 -0.0200423 -5.32346 
2 -7.17235 -1.83624 -5.33984 
1 -7.06309 -3.66043 -3.36322 
1 -5.5102 -3.55281 -5.38271 
1 -5.45753 -1.76042 -3.4742 
1 1.67128 -0.0747337 12.486 
1 -3.70817 -1.72777 -5.35866 
1 -1.95032 -3.41304 -5.32684 
1 -3.72378 -3.38168 -3.54905 
1 -1.83894 -1.63895 -3.63364 
1 -0.0590045 -1.73139 -5.43147 
1 -0.0778957 -3.42639 -3.72305 
1 -0.213101 0.106137 -3.69007 
1 1.85546 -3.48903 -5.40441 
1 3.62517 -1.79199 -5.4652 
1 3.55995 -3.58611 -3.62637 
2 1.74609 -1.72311 -3.59406 
1 7.04377 -1.8572 -5.39948 
1 7.10181 -3.61938 -3.66545 
1 5.40931 -3.57521 -5.38083 
1 5.33543 -1.787 -3.64815 
1 -5.45112 -0.0347178 12.4932 
1 10.5212 -1.7769 -5.48991 
1 10.5702 -3.61518 -3.53284 
1 8.82652 -3.72946 -5.47837 
1 8.82879 -1.76784 -3.73297 
1 12.0824 -1.72918 -3.54787 
1 5.42304 -0.00225586 -1.80423 
2 12.3851 -3.27154 -5.33318 
2 14.1404 -3.03437 -3.16267 
1 3.56538 0.000479563 -3.56831 
1 -7.45821 -1.52239 12.1738 
1 -5.29611 -12.5283 0.0811942 
2 -7.14372 -12.6308 1.57697 
1 -1.83002 -14.312 -1.78417 
1 -3.3668 -14.2037 0.1288 
1 -1.34101 -14.4087 1.52659 
1 2.14388 -14.2683 -1.87867 
1 0.137159 -14.6136 -0.440856 
1 3.41649 -14.393 0.214938 
2 1.37002 -14.2604 1.87306 
1 3.47857 -12.4312 1.7801 
1 4.90156 -14.2758 -1.75662 
1 5.23214 -12.5379 0.0148474 
1 6.99503 -12.4602 1.60564 
2 6.88772 -12.3771 -1.77407 
1 -10.6605 -10.5913 0.0694713 
1 -10.7885 -8.95981 -1.64297 
1 -8.94564 -10.7206 -1.63772 
2 -8.80251 -10.711 1.82602 
1 -8.79921 -8.93278 0.0800382 
2 -10.8366 -8.89085 1.90961 
2 -7.13283 -12.3163 -1.66504 
1 -7.10986 -10.6758 0.0431041 
2 -5.221 -10.7436 -1.66146 
2 -5.30481 -10.6656 1.75414 
1 -7.09937 -9.05933 -1.73824 
1 -7.08659 -8.82595 1.83237 
1 -5.2247 -8.91094 -0.016243 
1 -3.59696 -12.5939 -1.6969 
1 -1.64711 -12.3822 0.039194 
1 -3.44637 -12.3755 1.63608 
1 -3.43643 -10.5713 0.0961172 
1 -1.88866 -10.6907 -1.67452 
1 -1.80909 -10.5375 1.72184 
1 -3.61232 -8.81236 -1.69179 
1 -3.55111 -8.87588 1.92413 
1 -1.72433 -8.84135 0.000184268 
2 0.0788817 -12.3764 -1.65617 
1 -0.104379 -12.2837 1.76477 
1 0.0611708 -10.5729 0.00835111 
1 -0.0516324 -8.85667 -1.73313 
1 -0.00689061 -8.82621 1.77764 
2 1.71846 -12.5471 0.0848718 
1 3.60883 -12.3317 -1.74085 
1 3.51693 -10.6148 0.113526 
1 1.93914 -10.7372 -1.72239 
1 1.7798 -10.5117 1.82483 
1 3.45056 -8.88006 -1.91038 
1 3.56646 -8.88834 1.78737 
1 1.84447 -8.92235 -0.036363 
1 6.97362 -10.7369 -0.105369 
1 5.21668 -10.5528 -1.79028 
1 5.28114 -10.6699 1.66048 
1 7.06416 -8.86571 -1.80908 
2 7.10539 -8.98823 1.66533 
1 5.28594 -8.94289 -0.0698846 
1 8.75145 -12.112 -0.111052 
1 8.80399 -10.6439 -1.91066 
1 10.5745 -8.84959 -2.01546 
1 10.7775 -9.02153 1.5068 
2 8.95658 -8.91786 -0.112486 
1 8.92276 -10.7144 1.82025 
1 -12.4909 -7.0953 -1.67202 
1 -12.5395 -5.42078 0.142752 
2 -10.8016 -7.24844 0.148863 
1 -10.7964 -5.39956 -1.63735 
1 -10.6654 -5.41541 1.83709 
1 -9.0481 -7.2002 -1.64153 
1 -9.00906 -7.18583 1.93005 
1 -8.89668 -5.34963 -0.0694608 
1 -7.1293 -7.20702 -0.0030361 
1 -7.16025 -5.44 -1.61844 
1 -5.27226 -7.12339 -1.6624 
2 -7.23047 -5.49347 1.75276 
1 -5.27633 -7.16011 1.79036 
1 -5.42622 -5.38233 -0.0382385 
1 -3.47398 -7.09296 0.0557628 
1 -1.7844 -7.00905 -1.76422 
1 -1.75876 -6.99837 1.86368 
1 -3.60871 -5.31808 -1.82551 
1 -3.57882 -5.40298 1.73841 
2 -1.70024 -5.30696 0.0500874 
1 -0.00244293 -5.40247 -1.99159 
1 0.12269 -5.28506 1.80309 
1 -0.131132 -7.18487 0.0607014 
1 3.5701 -7.17068 -0.0217951 
2 1.65047 -7.21451 -1.78941 
1 1.84673 -7.21823 1.85811 
2 3.47544 -5.36615 -1.78123 
1 3.48473 -5.38215 1.77511 
1 1.64639 -5.45117 0.0397655 
1 7.00391 -6.99022 -0.0890799 
1 5.32269 -7.04306 -1.71218 
1 7.0921 -5.33198 -1.84438 
1 5.30063 -7.0426 1.71884 
2 7.22234 -5.38877 1.71614 
1 5.22914 -5.32314 -0.0270087 
1 10.7449 -7.21579 -0.184846 
1 10.7167 -5.41713 1.60958 
1 10.7543 -5.27937 -1.72993 
1 8.82956 -7.06238 -1.75289 
1 8.98899 -7.27697 1.65766 
1 8.99286 -5.40338 -0.0913303 
1 12.4365 -7.18519 1.39959 
1 12.4432 -7.19503 -1.97902 
2 12.6407 -5.29533 -0.218246 
1 -14.1737 -3.60148 0.116506 
2 -14.2957 -1.68026 -1.54313 
1 -14.2697 -1.85685 1.67045 
1 -12.5703 -3.51912 -1.62383 
1 -12.3927 -3.51167 1.79538 
1 -12.4455 -1.8126 -0.0446269 
1 -10.7885 -3.68898 -0.0275125 
1 -10.7326 -1.77184 -1.60542 
1 -10.6259 -1.73789 1.83702 
1 -8.8976 -3.57638 -1.67015 
2 -9.02184 -3.57665 1.72627 
1 -8.94699 -1.8155 -0.0590931 
1 -5.3858 -3.57583 12.2922 
1 3.73942 -5.36312 12.4401 
1 -7.13579 -3.62122 -0.0688125 
1 -7.21476 -1.81742 -1.74293 
1 -7.09956 -1.79257 1.82294 
1 -5.34598 -3.66663 -1.67928 
2 -5.34257 -3.62426 1.77104 
2 -5.34815 -1.69492 -0.100415 
1 -10.7118 0.0103127 -3.2522 
1 -3.50358 -3.53043 0.113638 
1 -3.52438 -1.67125 -1.69162 
2 -1.87751 -3.49961 -1.76811 
2 -3.54777 -1.71012 1.76351 
1 -1.66744 -3.59135 1.84246 
1 -1.71267 -1.73545 0.086722 
1 -0.0746228 -1.87833 -1.77734 
1 0.00129127 -1.86137 1.74201 
1 1.78585 -5.19531 14.1161 
2 1.68137 -7.08327 12.3407 
1 -0.0329761 -3.51522 -0.0123346 
2 3.46951 -3.51485 0.021336 
2 1.67726 -3.52034 -1.76142 
1 3.57395 -1.77971 -1.81861 
1 1.70715 -3.61547 1.88013 
1 3.57107 -1.82699 1.83581 
1 1.70252 -1.72421 -0.0769383 
2 3.58619 -0.0606305 -0.0594054 
1 1.70517 -0.0599825 -1.73622 
1 7.08339 -3.68711 0.0239263 
1 7.10369 -1.99226 -1.96183 
1 7.10808 -1.88545 1.78617 
1 5.33523 -3.5664 -1.88047 
1 5.40966 -3.66973 1.88911 
2 5.39183 -1.90989 0.0524768 
2 12.3424 -0.041731 -1.73318 
1 10.6251 -3.51194 0.0251295 
1 10.7997 -1.77817 1.64923 
1 10.4585 -1.82468 -1.75861 
1 8.85509 -3.65611 -1.75319 
1 8.94476 -3.5534 1.81644 
2 8.77211 -1.80005 -0.0289571 
1 12.311 -3.4131 -1.78938 
1 12.4421 -1.80949 -0.057559 
2 12.429 -3.62527 1.61527 
2 14.2749 -3.39501 -0.319532 
1 14.6635 -1.31043 -1.52387 
1 14.163 -1.87045 1.7808 
2 -5.07287 -12.529 3.41367 
2 -2.92546 -14.1415 3.19766 
1 -0.293836 -14.3195 3.67304 
1 3.52328 -14.083 3.49013 
1 5.30537 -12.3869 3.5114 
1 -10.599 -10.6169 3.63316 
1 -10.6509 -8.87341 5.422 
2 -8.80368 -8.9164 3.66735 
2 -8.81279 -10.7908 5.27145 
1 -6.97502 -10.9103 3.64832 
1 -5.40568 -10.9963 5.39334 
1 -7.09563 -9.12025 5.49407 
2 -5.39176 -9.06922 3.72412 
2 -3.12761 -12.4634 5.36161 
2 -0.114437 -12.4204 5.28821 
1 -1.60671 -12.264 3.36788 
1 -1.64388 -10.6742 5.21729 
1 -3.42164 -10.7099 3.49938 
2 -3.59014 -8.93096 5.47792 
1 -1.68389 -8.87845 3.65313 
1 0.0216302 -8.81387 5.4823 
1 3.55814 -12.5627 5.39939 
1 1.69515 -12.5089 3.53129 
1 0.0178185 -10.5504 3.53386 
1 1.6978 -10.6643 5.42547 
2 3.52556 -10.655 3.57003 
1 3.65918 -9.08071 5.44213 
1 1.72726 -8.89992 3.63718 
1 7.09336 -10.7325 3.63076 
1 5.39604 -10.7094 5.48348 
2 7.12076 -8.88286 5.46176 
2 5.34042 -8.72369 3.60211 
1 9.09152 -10.4698 5.43017 
2 9.03523 -8.90522 3.5836 
2 10.9041 -8.40091 5.42641 
1 -12.6229 -5.40054 3.43018 
1 -10.828 -7.18948 3.52993 
1 -10.8017 -5.54447 5.2369 
1 -8.82092 -7.17464 5.44514 
1 -8.92336 -5.40446 3.74856 
1 -7.08172 -7.16131 3.72625 
1 -7.08723 -5.43595 5.37114 
1 -5.41594 -7.22108 5.42484 
2 -5.23608 -5.46559 3.68333 
1 -1.77087 -7.1678 5.34059 
1 -3.48543 -7.16192 3.69802 
1 -3.52558 -5.38951 5.47032 
2 -1.74979 -5.34251 3.53909 
1 0.0652894 -7.18527 3.52273 
2 0.100601 -5.44035 5.43285 
1 1.86728 -7.20858 5.3682 
1 3.51537 -7.16594 3.56148 
1 3.58585 -5.37875 5.32391 
1 1.81273 -5.39027 3.64183 
1 7.23359 -7.09139 3.47641 
1 5.27528 -7.07129 5.44164 
2 7.16106 -5.44607 5.32292 
2 5.21604 -5.39405 3.51154 
1 10.9795 -7.22765 3.33475 
1 10.7953 -5.525 5.36258 
1 8.94912 -7.07608 5.41257 
1 9.0637 -5.54484 3.53805 
2 12.4119 -5.39779 3.38378 
1 -14.1671 -3.38015 3.57442 
1 -12.5409 -3.58639 5.25515 
1 -0.167548 -6.46262 14.1346 
1 -12.351 -1.75967 3.52405 
1 -12.6779 -0.187368 5.36323 
1 -10.7393 -1.75674 5.31474 
1 -10.6503 -3.64849 3.61223 
1 -8.89826 -3.68221 5.39336 
2 -9.03053 -1.82201 3.63267 
1 -7.04697 -1.78041 5.43345 
2 -7.08534 -3.56441 3.66752 
1 -5.22976 -3.53982 5.34759 
1 -5.33972 -1.74935 3.65994 
2 -3.54304 -1.67336 5.30004 
2 -1.8194 -3.55964 5.40832 
1 -3.50464 -3.57985 3.51944 
1 -1.6007 -1.75697 3.55653 
1 0.0101623 -3.50071 3.64188 
1 0.002558 -5.36009 12.0519 
1 -0.0415354 -1.67439 5.37524 
1 1.8549 -3.54344 5.30298 
1 3.5418 -1.77769 5.41539 
1 3.45335 -3.60534 3.59442 
1 1.76198 -1.86977 3.68702 
1 3.67401 0.0331281 3.5092 
1 1.81319 0.00231777 5.18116 
1 -3.6267 -5.15955 12.4176 
1 7.12488 -1.92098 5.46436 
1 7.18829 -3.6001 3.54557 
1 5.35361 -3.59077 5.36262 
1 5.38134 -1.75093 3.66439 
1 -1.92692 -6.99942 12.4722 
1 -0.0884231 -8.60689 12.6465 
2 10.7063 -1.82858 5.45875 
1 10.7478 -3.64262 3.40495 
2 9.05884 -3.6692 5.32915 
1 9.05304 -1.8796 3.5915 
2 12.466 -1.84285 3.67696 
2 12.644 -1.59293 7.18188 
1 12.5943 -3.88289 5.59077 
1 14.2914 -3.58801 3.59418 
1 14.2493 -1.92712 5.39694 
2 14.3632 0.0100513 3.43535 
1 -1.6006 -12.4652 7.43852 
1 -8.94569 -8.96805 7.28387 
1 -5.17777 -9.20576 10.3937 
1 -5.07694 -10.8205 8.74401 
1 -6.99887 -11.029 7.09042 
2 -7.12725 -8.96598 8.78878 
1 -5.32288 -8.99877 7.07504 
2 -1.81015 -8.89056 10.7495 
1 -1.84382 -10.5564 9.01562 
1 -3.40832 -10.6286 7.15236 
1 -3.5875 -8.73432 8.81776 
1 -1.77154 -8.89637 7.13921 
1 -0.0639127 -10.6812 7.26003 
1 0.0680825 -8.91952 8.91772 
1 1.68023 -12.6285 7.00483 
1 1.74337 -10.8849 8.71642 
1 3.52116 -10.9604 7.2168 
1 3.58501 -9.11423 8.81611 
1 1.80334 -8.93713 7.17994 
1 1.77498 -8.94474 10.6706 
1 7.28859 -10.6092 7.05962 
1 5.34998 -8.89143 10.4685 
1 5.56094 -10.5795 8.59343 
1 7.28883 -8.93312 8.81004 
1 5.33156 -8.84294 7.142 
1 9.14241 -8.89479 7.18627 
1 -10.7092 -5.24786 9.0024 
2 -10.6725 -7.03646 7.0732 
1 -9.01541 -7.10109 8.95439 
1 -8.73214 -5.46185 7.02325 
1 -8.80825 -5.10393 10.5271 
1 -7.04505 -7.27873 10.612 
1 -7.08867 -5.45672 8.93703 
1 -5.40279 -7.11153 8.92426 
1 -7.08504 -7.17933 7.16921 
1 -5.30359 -5.41049 7.08138 
1 -5.43812 -5.29871 10.5755 
2 -3.81963 -7.10197 10.7422 
1 -1.91664 -5.38105 10.61 
1 -1.85595 -7.08646 8.87793 
2 -3.71694 -5.33366 8.79901 
1 -3.6599 -7.10716 7.07906 
1 -1.75284 -5.4388 7.14089 
1 -0.162768 -7.16573 10.6044 
2 0.0737858 -5.3181 9.05929 
1 0.0385732 -7.24067 7.35354 
1 3.6986 -7.27282 10.7609 
1 1.93003 -5.33315 10.5613 
1 1.89577 -7.24115 8.9923 
1 3.82764 -5.35251 9.11775 
1 3.54547 -7.10528 7.1567 
2 1.90888 -5.36567 7.23539 
1 7.29575 -7.25982 10.5562 
1 5.52241 -5.4753 10.7706 
1 5.39982 -7.17484 8.89944 
1 7.08708 -5.36435 8.93585 
1 7.24417 -7.19511 7.21743 
2 5.35299 -5.3008 7.24912 
1 8.88048 -5.41258 10.4689 
1 10.7723 -5.11391 9.03839 
1 10.8909 -6.83863 7.25465 
1 9.01575 -7.03849 8.84538 
1 8.85487 -5.26641 7.22194 
2 -12.1092 -1.71979 7.27531 
1 -9.14321 -1.62095 10.3576 
1 -11.0002 -2.8673 9.3185 
2 -10.6291 -3.94591 6.93265 
1 -8.66229 -3.59883 8.70736 
2 -9.15182 -1.80644 7.06769 
1 -11.1534 -0.600584 9.22558 
1 -7.1941 -3.36569 10.6199 
1 -5.4197 -1.61284 10.7056 
1 -7.19785 -1.70963 8.7674 
2 -5.52232 -3.45003 8.95453 
1 -7.10048 -3.66979 6.93741 
1 -5.31037 -1.73969 7.12447 
1 -3.65974 -3.4754 10.7085 
1 -1.82869 -1.76562 10.7334 
1 -3.58204 -1.70256 9.02022 
2 -1.82152 -3.56944 9.01251 
1 -3.63995 -3.46519 7.08711 
1 -1.91105 -1.79509 7.2401 
1 0.025429 -3.32216 10.6217 
1 0.0514939 -1.65944 8.94352 
2 0.183121 -3.47619 7.24823 
1 1.82322 -1.71308 7.22983 
2 3.5459 -3.3926 7.19833 
1 1.85921 -1.74384 10.6025 
1 1.90454 -3.49598 9.04995 
1 3.64404 -1.57921 8.92149 
1 3.56371 -3.45389 10.6855 
1 3.56626 0.00172949 7.18593 
1 10.7823 -3.75812 7.15758 
1 7.13943 -0.0226372 10.7843 
1 7.24321 -3.65806 10.9157 
1 5.47759 -3.47113 9.18983 
1 7.13073 -3.60491 7.19276 
1 5.29032 -1.62893 10.7125 
1 7.1247 -1.78674 8.98424 
1 5.38235 -1.75231 7.2374 
1 5.36339 0.0618323 8.92608 
2 10.7746 -2.05579 8.83994 
1 8.8702 -3.62923 8.96147 
1 8.78822 -1.92446 7.20819 
1 9.06897 -1.9349 10.8233 
1 -3.76206 -0.0991361 -14.3348 
1 -10.9124 0.0442139 -7.16032 
1 -7.16698 0.0270738 -7.02882 
1 5.23887 -0.0994296 5.38367 
2 1.70174 -0.0261181 -8.9174 
1 5.37217 -0.0755663 -5.40541 
1 -14.2988 -0.202323 3.53785 
2 1.64797 -0.0963834 1.85077 
1 -1.84335 -0.0281451 -1.78445 
1 -7.21289 0.132491 0.0805935 
1 -3.57589 0.017024 3.60689 
2 12.4655 -0.00709522 -5.39004 
1 -1.69756 0.0087416 5.33808 
2 10.5178 0.11059 -7.19926 
1 12.7133 0.1291 5.42888 
1 -1.79574 0.0504537 8.95637 
1 -3.56191 -0.0618727 10.8287 
2 5.4244 0.103965 -9.23131 
1 12.0813 0.0594434 9.07289 
1 3.46853 0.104797 -10.7193 
1 3.67172 -0.0329916 -7.31046 
1 -3.60857 0.00262285 14.218 
1 -0.0176751 0.149943 -7.21993 
1 -10.7714 0.13907 -10.1679 
1 -8.99767 -0.0747942 -8.62658 
1 -7.21797 1.6786 -12.4201 
1 -5.54493 3.6627 -12.5976 
2 -1.98347 1.77938 -14.3672 
2 -3.83609 1.87745 -12.5713 
1 -1.88283 3.67796 -12.6244 
1 -0.126512 3.47665 -14.3225 
2 -0.0223161 0.0759222 -14.3654 
1 8.92394 -0.0115193 5.41817 
2 -0.0464389 1.75972 -12.424 
1 3.39161 3.55754 -14.3818 
1 3.38152 1.84544 -12.6691 
2 1.73066 3.68388 -12.6118 
1 1.75571 1.77759 -14.4025 
2 1.65681 -0.0571995 -12.3519 
1 5.2562 1.73258 -14.4004 
1 6.99808 1.74307 -12.7587 
1 5.16365 3.53321 -12.6044 
2 5.15615 0.015023 -12.5782 
1 -1.78954 7.16128 -12.4983 
1 -3.63429 5.25822 -12.572 
1 -0.0998018 5.41893 -12.5411 
1 1.59238 7.22454 -12.3427 
1 3.44851 5.46531 -12.7171 
1 -12.5511 1.79088 -6.89547 
1 -10.9413 2.17385 -8.71505 
1 -9.06297 1.77957 -10.7152 
2 -8.94741 3.71885 -8.8209 
2 -9.03063 1.89778 -7.06556 
1 -10.8447 3.76621 -6.88666 
2 10.7164 0.0948457 3.65329 
1 -7.34231 3.75785 -10.8845 
2 -5.42956 1.89597 -10.6973 
2 -7.26601 1.69425 -8.94151 
1 -5.55722 3.56049 -8.98422 
1 -7.09798 3.7625 -7.03265 
2 -5.48672 1.84465 -7.09261 
2 7.09267 -0.0630092 3.65859 
1 -3.60486 3.71591 -10.714 
1 -1.96278 1.93799 -10.7905 
1 -3.72532 1.85575 -8.9852 
2 -1.82409 3.57468 -8.9893 
2 -3.6619 3.58823 -7.05798 
1 -1.96252 1.70347 -7.22323 
1 -0.0814511 1.78088 -9.12368 
1 -0.0264019 3.627 -10.8144 
1 -0.0678282 3.51944 -7.21362 
1 -0.291244 -0.0413201 -10.6631 
1 3.62329 3.61671 -10.7719 
1 1.82965 1.89554 -10.6606 
1 3.64441 1.86839 -8.97721 
2 1.74344 3.71222 -9.00004 
1 3.60959 3.73982 -7.31147 
2 1.93724 1.80824 -7.04659 
1 0.0094733 0.010812 3.67228 
2 7.01513 3.62034 -10.8914 
1 5.33914 1.8249 -10.9975 
1 7.26792 1.80916 -9.05185 
1 5.46812 3.57671 -8.96225 
1 7.07604 3.4433 -7.10942 
1 5.23262 1.83433 -7.16029 
2 7.35773 -0.0511158 -10.8636 
1 8.88335 1.98398 -10.9383 
2 10.6537 1.91046 -9.02783 
1 8.79278 3.57197 -8.8747 
1 8.87648 1.88266 -7.16523 
1 10.5828 3.64965 -7.06116 
2 12.3791 1.95559 -7.0067 
1 8.82741 0.0400903 -8.95997 
1 -10.7642 5.3498 -8.71263 
1 -10.6265 7.02843 -7.12106 
1 -9.12129 7.19556 -8.96821 
1 -8.91348 5.41604 -7.00276 
1 -9.15983 5.37637 -10.7186 
2 -5.50153 5.38007 -10.6613 
1 -7.39534 6.89414 -10.7493 
1 -7.34576 5.48331 -8.79448 
1 -5.48601 7.15658 -8.87793 
2 -7.3177 7.29105 -7.09046 
1 -5.50893 5.49234 -7.08216 
2 -3.81264 7.21459 -10.7476 
1 -1.96629 5.4433 -10.8009 
1 -1.93811 7.28649 -8.91879 
2 -3.62143 5.50583 -8.83362 
1 -3.64151 7.31783 -7.13476 
1 -1.83134 5.45326 -6.97311 
1 -0.118406 7.18341 -10.7931 
1 -0.0481207 7.17305 -7.09292 
2 -0.084948 5.50563 -8.92447 
1 3.60555 7.27022 -10.7885 
1 1.83214 5.38355 -10.7767 
2 1.81844 7.19485 -8.94613 
1 3.73498 5.49947 -8.99898 
1 3.57059 7.17055 -7.19837 
1 1.79389 5.4668 -7.125 
1 7.0647 7.00536 -10.7688 
1 5.16419 5.47951 -10.8766 
1 7.13155 5.25023 -9.03983 
1 5.5914 7.07954 -8.92107 
1 7.22336 7.0871 -7.16099 
1 5.43288 5.38505 -7.24199 
1 8.99534 5.02572 -10.7185 
1 10.6082 5.10083 -8.97873 
1 8.96442 6.89752 -9.17078 
1 8.77299 5.32067 -7.16835 
2 10.8255 6.51497 -7.00611 
1 -9.00893 9.00945 -7.05867 
1 -5.53243 8.94633 -10.557 
1 -5.44349 10.7938 -8.84291 
1 -7.17953 8.91469 -8.89273 
1 -5.48264 9.05523 -7.01407 
1 -7.18281 10.7355 -7.02093 
2 -1.77738 8.90086 -10.6857 
2 -1.92761 10.7434 -8.85323 
1 -3.62955 10.7689 -7.13663 
1 -3.69213 8.93751 -8.88815 
1 -1.87419 8.90012 -7.16206 
1 -0.0778192 8.86427 -8.77164 
1 -0.0916323 10.6759 -7.21134 
1 0.0595356 10.7246 -10.3365 
1 1.81074 8.93735 -10.6637 
1 1.97448 10.651 -8.86367 
1 3.65916 10.7343 -7.15016 
1 3.73763 9.04982 -8.87026 
1 1.72486 8.88949 -7.20647 
2 1.86262 12.4568 -7.1946 
1 5.45719 8.76241 -10.5439 
1 5.51821 10.4884 -8.74911 
1 7.42133 10.3123 -7.21539 
1 7.24699 8.68429 -8.97792 
1 5.42408 8.76041 -7.13712 
1 9.12569 8.54677 -7.24358 
1 -1.72324 12.4884 -7.03151 
2 -14.0933 3.36496 -3.26307 
2 -12.3939 3.60264 -5.21582 
1 -14.2764 -0.00396569 -3.50629 
1 -12.5023 0.0394917 -5.17685 
1 -12.4679 1.64606 -3.23086 
2 -10.6993 1.84101 -5.18126 
1 -10.7402 3.6486 -3.37938 
1 -8.96961 3.79683 -5.335 
2 -8.89458 1.75244 -3.3335 
1 -0.0660469 5.37284 12.5272 
1 -7.25085 1.97746 -5.31714 
2 -7.0924 3.68838 -3.60477 
1 -5.31949 3.76469 -5.30668 
1 -5.38704 1.8711 -3.55552 
1 1.90435 7.06927 12.713 
1 -5.33183 0.0604092 -5.3361 
1 -3.64475 1.8648 -5.26739 
1 -1.8494 3.72322 -5.36962 
1 -3.56756 3.66705 -3.61422 
1 -1.93897 1.8409 -3.58844 
1 -0.152248 1.83754 -5.48007 
1 -0.102134 3.56189 -3.65953 
1 -3.52977 0.039136 -3.65095 
1 1.82036 0.00787413 -5.46153 
1 3.62961 1.79923 -5.31335 
2 1.68205 3.67464 -5.4571 
1 3.59835 3.64658 -3.55217 
2 1.68032 1.70674 -3.62166 
1 3.53956 5.2291 12.453 
1 7.04947 1.82855 -5.34196 
1 7.17387 3.638 -3.4635 
1 5.31645 3.64491 -5.2472 
1 5.37621 1.82103 -3.57942 
1 -10.5789 0.00787611 -0.0200364 
1 10.6029 1.85924 -5.21676 
1 10.6522 3.60976 -3.47289 
2 8.86777 3.62959 -5.27298 
1 8.74384 1.80711 -3.57489 
1 12.3691 1.62597 -3.70163 
1 8.80141 -0.0204167 -5.32333 
1 12.4333 3.64659 -5.2394 
1 14.1171 3.47871 -3.54914 
1 -12.5752 5.3177 -3.46493 
1 -10.9524 7.35252 -3.45423 
1 -10.772 5.45986 -5.12032 
2 -8.99183 7.21573 -5.10067 
1 -8.9826 5.34247 -3.45777 
1 -7.05169 7.23048 -3.46264 
1 -7.16295 5.53114 -5.3456 
1 -5.41291 7.16701 -5.37703 
1 -5.36286 5.50629 -3.67218 
1 -1.75498 7.20226 -5.26843 
1 -3.60645 7.22988 -3.54746 
1 -3.54928 5.57818 -5.25497 
1 -1.68399 5.43193 -3.44545 
1 0.00356691 5.47487 -5.331 
2 0.139667 7.24411 -3.55409 
1 1.76266 7.26104 -5.52094 
2 3.39084 7.35854 -3.64201 
1 3.57772 5.36144 -5.4009 
1 1.86466 5.42497 -3.60406 
1 7.19516 6.98473 -3.38213 
1 7.07021 5.36289 -5.19405 
2 5.29875 6.95133 -5.39791 
1 5.23215 5.37869 -3.52542 
1 10.7993 7.22774 -3.39756 
1 10.6871 5.24751 -5.04976 
1 8.89066 6.83055 -5.27638 
1 8.84036 5.30949 -3.3591 
2 12.4756 5.4411 -3.3414 
1 -10.7646 9.04705 -5.34623 
1 -8.97158 10.6203 -5.17134 
1 -8.99572 9.0174 -3.39577 
1 -10.6121 10.5406 -3.50894 
1 -7.2638 10.8696 -3.49684 
1 -5.37644 10.8698 -5.31904 
1 -7.1509 9.05451 -5.18781 
1 -5.35032 9.04267 -3.46634 
1 -5.3683 12.3619 -3.55281 
1 -1.74639 10.6566 -5.40182 
1 -3.4121 10.7219 -3.4877 
2 -3.51939 9.00362 -5.31041 
1 -1.72678 8.99412 -3.52751 
1 -0.0222997 8.95686 -5.35516 
1 -0.088966 10.8209 -3.66776 
2 1.7341 10.7365 -5.32348 
1 3.67329 10.5607 -3.72816 
1 3.56463 9.00365 -5.54154 
1 1.73761 9.08477 -3.43982 
1 7.43147 10.7883 -3.60121 
2 5.67936 10.6224 -5.51953 
1 7.21672 8.67541 -5.25361 
2 5.52892 8.90965 -3.54963 
1 10.8797 8.42411 -5.41497 
1 9.07391 10.2969 -5.39453 
1 8.95023 8.79453 -3.58141 
1 -1.79779 12.4296 -3.48806 
1 -0.11984 12.6277 -5.35058 
1 -3.48255 12.5437 -5.29276 
1 -3.57762 14.1985 -3.56787 
1 -0.0901136 14.33 -3.54357 
1 1.80399 12.4224 -3.51938 
1 3.70995 12.5141 -5.41646 
2 1.90634 13.9979 -5.21833 
1 3.72988 14.1224 -3.61275 
1 5.48966 12.3543 -3.71946 
1 -14.1893 3.54602 0.0144478 
1 -14.3403 1.68056 -1.62249 
1 -14.4077 1.96322 2.01318 
2 -12.6267 3.77428 1.95216 
1 -12.3906 3.57005 -1.68297 
1 -14.3705 0.0268776 0.239058 
1 -1.87603 6.95878 12.5052 
1 -12.5153 1.77789 0.111166 
2 -10.7842 3.71326 0.14047 
1 -10.6797 1.92386 -1.74396 
1 -10.639 1.8168 1.67156 
1 -8.92969 3.61529 -1.72836 
1 -8.86128 3.68293 1.81772 
1 -8.88926 1.87865 0.0291503 
2 -8.93449 0.0738662 1.74615 
1 -8.81807 -0.000311933 -1.58659 
1 -6.99506 3.63364 -0.0179221 
1 -7.02881 1.96537 -1.62405 
1 -7.11092 1.86691 1.79784 
1 -5.24365 3.6856 -1.85091 
1 -5.3326 3.64747 1.77472 
1 -5.25782 1.87393 0.0122034 
1 -12.4038 -0.0220604 -1.52481 
1 -5.41498 0.0896116 -1.66329 
1 -3.87109 5.33101 12.5598 
2 -3.63464 3.61831 0.161281 
1 -3.58668 1.68226 -1.83624 
2 -1.73015 3.64259 -1.79929 
1 -3.4632 1.85685 1.8447 
1 -1.81306 3.64096 1.74199 
1 -1.7774 1.78812 -0.0315503 
1 -0.0549947 1.77824 -1.84873 
1 0.00821079 1.88293 1.6712 
1 0.0446779 3.64156 -0.0537997 
1 -1.68845 0.0475986 1.74319 
1 -3.47819 0.116828 -0.000513388 
2 3.57179 3.50649 -0.0505517 
1 3.56661 1.66079 -1.94331 
2 1.77904 3.60363 -1.95346 
1 3.64967 1.83776 1.87934 
1 1.80574 3.62699 1.79156 
2 1.77187 1.70263 0.0643182 
1 6.98036 1.73483 12.5061 
1 7.17042 3.68799 0.00963516 
1 7.09016 1.78925 -1.67256 
1 7.07754 1.88615 1.87997 
1 5.3653 3.65288 -1.81005 
1 5.51097 3.70262 1.88056 
2 5.37433 1.78724 0.0220594 
1 5.26434 3.56924 12.6045 
1 1.76103 3.41999 12.3756 
1 3.36932 1.73332 12.5968 
1 10.6412 3.56014 0.0533472 
1 10.7444 1.9198 1.74599 
2 10.5002 1.74788 -1.7335 
1 8.82914 3.61984 -1.69077 
1 8.89 3.67253 1.88908 
1 8.83165 1.88683 0.206411 
1 12.3785 1.80297 0.0491168 
1 12.402 3.45357 -1.84952 
1 1.83717 5.01158 13.9911 
1 1.67512 1.97482 14.3541 
1 12.4621 -0.116332 1.76821 
1 12.6141 3.81018 1.96322 
1 14.1941 0.153965 0.223298 
1 14.0171 3.46605 -0.00932141 
2 14.1613 1.71488 -1.82936 
1 14.2489 1.9334 1.84802 
1 -12.7214 5.53054 -0.0120606 
1 -12.3496 7.2733 1.74876 
1 -12.4896 7.01352 -1.63469 
1 -10.7234 6.953 -0.0890867 
1 -10.7008 5.43938 -1.79575 
1 -10.7366 5.47645 1.86706 
1 -8.88473 7.2272 -1.81138 
2 -8.93111 7.106 1.64102 
1 -8.81197 5.33381 -0.0812258 
1 -6.99236 7.18347 -0.0754368 
1 -7.03965 5.30893 -1.90053 
2 -5.35042 7.11276 -1.83829 
1 -7.03899 5.28071 1.72336 
1 -5.38247 7.17457 1.78847 
1 -5.38944 5.38337 -0.0653484 
1 -3.64935 7.20021 -0.0248478 
1 -1.76496 7.159 -1.67795 
1 -1.90964 7.1262 1.77706 
1 -3.59972 5.39321 -1.76281 
1 -3.6626 5.45198 1.861 
2 -1.7798 5.43854 0.0732126 
1 0.105296 5.45369 -1.77287 
1 0.0744785 5.34729 1.77373 
1 -0.0583526 7.13234 0.156731 
1 3.5357 7.20958 0.0675678 
1 1.67492 7.25976 -1.58938 
2 1.79147 7.20572 1.75134 
1 3.52978 5.39962 -1.67516 
2 3.55392 5.3022 1.87397 
1 1.75403 5.35146 -0.0672194 
1 7.11462 7.1177 0.0382266 
1 7.04913 5.37389 -1.57471 
2 5.35671 7.09362 -1.77089 
1 7.06954 5.38706 1.92444 
1 5.35326 7.15729 1.91327 
1 5.37097 5.39886 0.102099 
1 10.6586 7.06343 -0.0296627 
1 10.7706 5.35395 1.74296 
1 10.5299 5.2503 -1.72746 
1 8.95672 7.13516 -1.68362 
2 8.7901 7.18355 1.75411 
1 8.8805 5.22969 0.0180802 
1 12.4585 7.31753 -1.73914 
1 12.528 5.29473 -0.222476 
2 12.4342 7.0391 1.6397 
2 -8.91617 10.7257 -1.5895 
1 -8.88102 10.6647 1.70182 
2 -10.8513 8.98532 -1.42194 
1 -10.7277 8.93832 1.52715 
1 -8.84066 8.83536 -0.0476092 
1 -7.10839 10.7025 0.0153536 
1 -5.22966 10.6697 1.86394 
1 -5.24423 10.7358 -1.78836 
1 -7.09674 8.98431 -1.74089 
1 -7.05297 8.89044 1.75224 
1 -5.27128 9.05015 -0.035611 
1 -7.14741 12.3586 1.73079 
1 -7.2667 12.5512 -1.82373 
1 -3.53659 10.7733 0.00814938 
2 -1.67972 10.8098 1.76491 
1 -1.77148 10.8197 -1.70856 
1 -3.55935 9.00216 -1.77699 
2 -3.54026 8.89127 1.73574 
1 -1.90564 8.93523 0.00503054 
1 -0.0627415 9.06183 1.71677 
1 -0.00842501 10.8682 -0.0199988 
1 -3.54996 12.4653 -1.78691 
2 -0.0271501 8.98761 -1.64037 
1 3.51073 10.6959 0.0691008 
1 1.77172 10.8044 1.86313 
1 1.90089 10.8105 -1.88829 
1 3.429 8.9399 -1.71647 
1 3.59058 9.07752 1.86556 
1 1.86971 9.05633 0.0564818 
2 1.78324 12.4677 0.0586641 
1 7.1983 10.7108 0.021278 
1 5.35916 10.7546 1.8439 
2 5.34971 10.7139 -1.8181 
1 7.21775 8.87956 -1.72204 
1 7.03146 9.10887 1.87672 
2 5.3891 8.95762 0.0476597 
2 7.13145 12.3359 1.73497 
1 10.6438 8.9913 -1.58821 
2 10.8204 8.98081 1.38144 
2 8.98323 10.7174 1.78987 
1 8.93545 10.6908 -1.65913 
1 8.8254 8.9252 0.037597 
2 -5.32594 12.4823 0.0315377 
2 -5.27725 14.2016 -1.76705 