ITEM: TIMESTEP
1140000
ITEM: NUMBER OF ATOMS
1289
ITEM: BOX BOUNDS pp pp pp
-100 100
-100 100
-100 100
ITEM: ATOMS type x y z 
1 -1.77969 -6.98972 -12.471 
1 -3.63236 -5.22108 -12.5111 
1 -0.0713159 -5.32072 -12.3848 
1 1.70533 -7.04051 -12.3383 
1 3.4868 -5.29385 -12.4202 
1 -7.34402 -1.81079 -12.4078 
2 -5.53597 -3.50505 -12.4126 
1 -5.60802 -0.0695269 -12.5545 
2 -1.83332 -1.93727 -14.1954 
2 -3.74312 -1.81386 -12.3774 
1 -1.92768 -3.56938 -12.2995 
1 -0.149607 -1.83436 -12.3715 
2 -1.80272 0.0185886 -12.4885 
1 0.0812775 -3.6198 -14.0692 
2 3.56283 -3.11828 -13.9424 
1 1.67528 -3.57361 -12.4427 
1 3.47419 -1.64287 -12.0849 
1 1.63931 -1.86361 -14.1905 
2 1.7257 -0.0341413 -12.2641 
2 3.35064 -0.14978 -14.1985 
1 5.48979 -1.46962 -14.3516 
2 7.23933 -1.92064 -12.5313 
2 5.41548 -3.49207 -12.4289 
1 -2.01443 -12.545 -7.1166 
1 -9.02321 -9.06387 -7.20336 
2 -5.36359 -10.4848 -8.80894 
1 -5.58317 -8.79028 -10.7808 
1 -7.21411 -9.04414 -8.93276 
1 -5.58117 -8.88504 -7.05074 
1 -7.24419 -10.722 -7.12762 
1 -2.05728 -10.7408 -8.84251 
1 -2.05888 -8.95151 -10.742 
1 -3.7571 -10.8568 -7.00578 
2 -3.555 -8.80436 -8.90326 
1 -1.96155 -8.95041 -7.13461 
1 -0.0576466 -8.73535 -8.84077 
1 -0.30748 -10.4731 -10.4644 
2 -0.140918 -10.6704 -7.27668 
1 1.61494 -12.2994 -7.24073 
2 1.73748 -10.5284 -9.00953 
1 1.82818 -8.95517 -10.8002 
1 3.55434 -10.7149 -7.03988 
2 3.66001 -8.80907 -8.77346 
1 1.67463 -8.89622 -7.13106 
1 5.29077 -10.8355 -8.6956 
1 7.03776 -9.01489 -8.8808 
1 5.39427 -8.90866 -7.07894 
1 7.1731 -10.5508 -7.14663 
1 5.33792 -8.83945 -10.752 
1 8.93928 -8.91065 -7.3314 
1 -10.6856 -5.12534 -8.81974 
1 -9.10326 -5.32613 -10.6397 
1 -9.02865 -7.1426 -8.86874 
2 -9.01781 -5.2936 -7.03189 
2 -10.7371 -7.08502 -7.03878 
1 -7.24302 -7.0405 -10.5201 
1 -5.51711 -5.27412 -10.634 
1 -7.17433 -5.34184 -8.88055 
1 -5.41409 -7.13566 -8.82865 
2 -7.27335 -7.2267 -7.12251 
1 -5.41301 -5.43328 -7.12033 
2 -3.75026 -7.11286 -10.8018 
1 -1.95305 -5.3263 -10.631 
1 -1.94098 -7.13088 -8.96608 
1 -3.73616 -5.49386 -8.94709 
1 -3.65159 -7.24204 -7.0702 
2 -2.00612 -5.28298 -7.15382 
2 -0.1806 -7.18765 -7.09031 
2 -0.0866303 -5.47447 -8.84413 
1 -0.197304 -7.29771 -10.7625 
2 3.64456 -7.1552 -10.701 
1 1.78911 -5.40141 -10.6489 
1 1.68276 -7.21717 -8.93828 
1 3.4969 -5.32328 -8.86297 
1 3.63707 -7.04283 -7.07565 
2 1.86128 -5.3401 -7.07722 
1 7.08939 -7.09975 -10.5772 
1 5.27844 -5.29836 -10.5676 
1 5.36495 -7.06188 -8.82439 
1 7.1377 -5.38839 -8.81396 
1 7.17388 -7.29062 -7.08377 
1 5.3425 -5.40879 -7.103 
1 8.88797 -5.2149 -10.6272 
1 10.662 -5.15737 -8.69839 
1 10.7604 -6.99209 -7.11616 
2 9.0061 -7.15146 -8.89268 
1 8.88946 -5.38928 -7.13663 
1 -12.6726 -1.90633 -6.85423 
1 -10.8653 -2.07022 -8.673 
1 -9.2201 -1.60137 -10.6916 
1 -10.8376 -3.6053 -6.88436 
1 -8.90555 -3.40072 -8.84728 
1 -9.02364 -1.86921 -7.1156 
1 -8.91094 -0.0950165 -8.78196 
1 -11.0126 0.0508996 -7.16384 
1 -7.32988 -3.48184 -10.5829 
1 -5.49912 -1.69886 -10.6731 
1 -7.17563 -1.78589 -8.89589 
1 -5.39822 -3.51092 -8.87849 
1 -7.11899 -3.63398 -7.16916 
1 -5.33189 -1.77882 -7.16964 
1 -7.26883 -0.0158124 -10.6128 
1 -5.48009 -0.145552 -8.86272 
1 -7.1485 -0.044142 -7.01076 
1 -3.7641 -3.46331 -10.6131 
1 -1.96068 -1.68323 -10.6693 
1 -3.56435 -1.7376 -8.88496 
2 -1.84792 -3.53828 -9.01529 
1 -3.60307 -3.47893 -7.15122 
1 -1.88564 -1.64457 -7.01213 
1 -0.0802248 -3.70178 -10.7496 
1 -0.163191 -1.69041 -8.98479 
1 -3.64698 0.0733669 -7.12984 
1 -0.106446 -0.145185 -7.13598 
1 -0.177699 -3.45433 -7.11289 
1 -1.93017 0.0981699 -8.90941 
1 3.47029 -3.62927 -10.687 
1 1.54132 -1.92109 -10.7443 
1 1.75334 -3.54871 -8.80439 
2 3.58441 -1.91262 -9.03853 
1 3.667 -3.45554 -7.10468 
1 1.73175 -1.87044 -7.11916 
2 1.64819 -0.0381061 -8.99469 
1 7.16669 -3.63108 -10.6364 
1 5.45285 -1.86393 -10.627 
1 7.02958 -1.88961 -8.82192 
1 5.37834 -3.67939 -8.78709 
1 7.10295 -3.63644 -7.0477 
1 5.36601 -1.74983 -7.15331 
1 8.88488 -1.97675 -10.6487 
1 10.7306 -3.52289 -6.89899 
1 8.8787 -3.59455 -8.88694 
2 8.85811 -1.84706 -7.17314 
2 10.731 -1.76186 -9.0384 
2 10.6124 -0.108605 -7.05274 
1 8.8382 -0.0057019 -8.79536 
1 12.558 -1.90086 -7.24814 
1 -5.61653 -12.3861 -3.4792 
1 -1.77447 -14.062 -5.10933 
1 -3.69435 -12.5016 -5.23711 
2 0.0464938 -14.1187 -3.36591 
1 -1.91816 -12.4229 -3.49985 
1 0.159379 -12.5957 -5.29679 
2 1.95832 -12.5493 -3.4854 
1 5.12147 -12.734 -3.43596 
1 -10.8185 -8.95201 -5.27455 
1 -8.96313 -10.65 -5.28794 
2 -9.09576 -8.9009 -3.47052 
1 -7.29685 -10.7456 -3.45333 
1 -5.53698 -10.7476 -5.25433 
1 -7.24749 -8.96473 -5.20913 
1 -5.4207 -8.94204 -3.62832 
2 -1.86883 -10.7317 -5.43639 
1 -3.71825 -10.7828 -3.60083 
1 -3.75034 -8.90118 -5.32333 
2 -2.03903 -8.84473 -3.66728 
1 -0.0218316 -8.98294 -5.33576 
2 -0.0298526 -10.7483 -3.61662 
1 3.34596 -12.5914 -5.54087 
1 1.7344 -10.6119 -5.37116 
1 3.69622 -10.7791 -3.76302 
1 3.64009 -8.93254 -5.48262 
1 1.91963 -8.92831 -3.60428 
2 7.06703 -11.034 -3.62005 
1 5.45493 -11.0273 -5.41872 
1 7.06241 -9.06745 -5.39179 
2 5.37191 -8.9911 -3.65913 
1 8.88206 -10.7113 -5.50123 
2 8.93324 -9.05682 -3.58306 
1 10.6639 -8.88553 -5.60875 
1 -12.6269 -5.50135 -3.45267 
1 -10.7792 -7.20119 -3.63558 
1 -10.8425 -5.40887 -5.16065 
2 -8.90656 -7.12171 -5.17044 
1 -8.98826 -5.2722 -3.47535 
1 -7.07842 -7.07891 -3.48342 
1 -7.23259 -5.26005 -5.21709 
1 -5.48437 -7.12916 -5.2745 
1 -5.38416 -5.29106 -3.51164 
1 -1.76749 -7.15761 -5.3267 
1 -3.64842 -7.15767 -3.4334 
1 -3.59216 -5.48117 -5.30005 
1 -1.86224 -5.46538 -3.60037 
2 -0.00218589 -5.31551 -5.21965 
1 -0.0968412 -7.216 -3.56787 
2 1.86463 -7.25662 -5.22775 
1 3.60668 -6.97801 -3.53043 
1 3.58859 -5.27273 -5.4005 
1 1.84117 -5.22204 -3.67053 
1 7.17883 -7.18546 -3.54343 
1 5.41801 -7.14254 -5.36554 
1 6.98443 -5.33635 -5.37153 
1 5.49304 -5.368 -3.6138 
1 10.6876 -7.10419 -3.60044 
1 10.7508 -5.24417 -5.24826 
2 8.89872 -7.28181 -5.43789 
2 8.77875 -5.33899 -3.60809 
1 12.5978 -5.16836 -3.40713 
1 -14.2651 -3.48011 -3.64751 
1 -12.6394 -3.79712 -5.39614 
2 -12.4222 -1.59772 -3.62147 
1 -10.7296 -1.70712 -5.38851 
2 -10.8868 -3.66629 -3.5685 
1 -8.97028 -3.6109 -5.30368 
2 -9.06305 -1.81208 -3.45642 
1 -10.8532 0.131338 -3.49923 
2 -9.07355 0.0481214 -5.4782 
2 -7.0863 -1.88144 -5.32865 
1 -7.18016 -3.61556 -3.52636 
1 -5.41205 -3.6106 -5.46133 
1 -5.43098 -1.86345 -3.5056 
1 -3.75119 -1.70649 -5.39563 
1 -1.91499 -3.47923 -5.17532 
1 -3.73532 -3.55819 -3.61217 
1 -1.84314 -1.61324 -3.59362 
1 -0.0878983 -3.48533 -3.67872 
1 -0.166377 -1.7606 -5.35312 
1 1.77185 -3.4171 -5.43743 
1 3.57624 -1.68137 -5.38505 
1 3.58914 -3.55363 -3.6212 
2 1.70379 -1.69519 -3.60982 
1 1.65899 -0.0678269 -5.41703 
1 7.0732 -1.80496 -5.40162 
1 7.08216 -3.4535 -3.66276 
1 5.38835 -3.5892 -5.39631 
1 5.28926 -1.75148 -3.62064 
1 6.9215 0.12214 -3.51656 
1 10.5489 -1.69108 -5.22954 
1 10.5276 -3.42665 -3.6116 
1 8.91234 -3.63318 -5.40856 
1 8.82394 -1.65507 -3.42717 
1 12.2633 -1.58844 -3.27947 
1 8.82827 0.0377724 -5.28387 
2 12.5196 -3.18397 -5.07912 
2 14.2002 -2.80436 -3.11391 
2 14.2802 -0.101919 -3.36764 
2 12.6628 -0.291814 -5.27187 
1 -5.19728 -12.4534 -0.103811 
2 -7.09823 -12.6129 1.46358 
1 -3.48306 -14.237 0.408619 
1 -1.87067 -14.1636 -1.48862 
1 -1.14136 -14.172 1.13769 
1 -3.62408 -12.3945 -1.74044 
1 -1.82016 -12.2001 -0.0656231 
1 -3.46999 -12.2447 1.75716 
2 -0.0515163 -12.4594 -1.65501 
1 2.39464 -14.3322 -1.8912 
1 0.551169 -14.7261 -0.554964 
1 3.57993 -14.2019 0.425502 
2 1.3638 -14.1147 1.72956 
1 3.38051 -12.1305 1.74772 
1 3.66607 -12.3485 -1.58264 
1 5.08122 -14.1833 -1.53534 
1 7.25252 -12.3927 1.68196 
1 5.25575 -12.4903 0.207487 
2 6.89435 -12.5061 -1.57584 
1 -10.6566 -10.7143 0.242396 
1 -10.7372 -9.06598 -1.72411 
1 -8.88218 -10.8474 -1.62093 
2 -8.84576 -10.7996 1.83123 
1 -8.93304 -8.76603 0.0197414 
2 -10.6988 -8.85535 1.77197 
2 -7.2095 -12.3691 -1.35349 
1 -7.17127 -10.5055 0.12475 
2 -5.42866 -10.4625 -1.73987 
2 -5.39188 -10.6455 1.65189 
1 -7.16637 -8.88082 -1.89341 
1 -7.17089 -8.79459 1.84589 
1 -5.47163 -8.62769 0.0804162 
1 -3.59047 -10.5321 0.011025 
1 -1.74194 -10.6173 -1.82082 
1 -1.79118 -10.4363 1.64488 
1 -3.58202 -8.93796 -1.76446 
1 -3.66243 -8.79865 1.85323 
1 -1.76071 -8.75573 -0.0981415 
1 0.0124532 -10.4641 -0.157396 
1 0.000658889 -12.1389 1.68076 
1 -0.0428721 -8.84452 -1.84077 
1 0.0100001 -8.84419 1.74445 
2 1.79125 -12.4109 -0.00894701 
1 3.52006 -10.5533 -0.0183609 
1 1.81795 -10.6259 -1.87261 
1 1.74774 -10.4169 1.82875 
1 3.57307 -8.93771 -1.77217 
1 3.57775 -8.69506 1.65655 
1 1.71446 -8.90172 -0.0792638 
1 7.20566 -10.7332 0.0618148 
1 5.31673 -10.7255 -1.75732 
1 5.20259 -10.5094 1.7008 
1 7.24513 -8.93153 -1.74655 
2 7.06372 -8.98859 1.74153 
1 5.476 -8.88133 -0.199457 
1 8.87722 -10.8452 -1.90937 
1 8.95063 -12.2649 -0.0251569 
1 10.9401 -9.06169 -1.89538 
1 10.9014 -8.9126 1.65476 
2 9.06979 -9.04891 0.00995257 
1 8.91438 -10.7819 1.98511 
1 -12.5458 -5.33382 0.0210923 
1 -12.3342 -7.35726 -1.7652 
2 -10.7784 -7.10421 -0.0333125 
1 -10.7784 -5.38343 -1.82767 
1 -10.764 -5.49267 1.80128 
1 -8.95735 -7.10232 -1.80766 
1 -8.93804 -7.10294 1.88408 
1 -8.95287 -5.44446 -0.0863018 
1 -7.166 -7.14792 -0.00621948 
1 -7.16146 -5.37946 -1.82669 
1 -5.34402 -7.07813 -1.75339 
2 -7.17657 -5.3958 1.68434 
1 -5.30782 -7.03624 1.80693 
1 -5.3784 -5.39368 -0.103208 
1 -3.60298 -7.24075 -0.0659498 
1 -1.75413 -7.11425 -1.82783 
1 -1.84495 -7.1304 1.80938 
1 -3.54962 -5.28022 -1.81722 
1 -3.62207 -5.31765 1.63655 
2 -1.7264 -5.35713 -0.107913 
1 -0.0239235 -5.28349 -2.02907 
1 0.0123912 -5.37325 1.80086 
1 -0.0301423 -7.11056 -0.144346 
1 3.62019 -7.05569 -0.0934491 
2 1.71951 -7.11398 -1.84853 
1 1.77098 -7.10033 1.60953 
2 3.67897 -5.32478 -1.81347 
1 3.51163 -5.37154 1.75285 
1 1.66599 -5.28231 0.0808751 
1 7.15808 -7.14084 -0.104394 
1 5.47779 -7.09513 -1.85133 
1 7.11989 -5.29118 -1.87114 
1 5.39152 -7.14795 1.76957 
2 7.28067 -5.50845 1.74367 
1 5.42762 -5.32589 -0.0230296 
1 10.7695 -7.13952 -0.0944389 
1 10.6634 -5.35668 1.68721 
1 10.6218 -5.33048 -1.91338 
1 8.96478 -7.23005 -1.84582 
1 9.04447 -7.26694 1.83493 
1 8.97266 -5.47029 -0.159235 
2 12.4431 -5.21684 -0.275822 
1 12.3191 -7.08272 -1.9949 
1 12.5521 -6.88641 1.66156 
1 -14.3291 -3.55726 0.182499 
2 -14.0907 -1.65591 -1.68258 
1 -14.2204 -1.8532 1.75654 
1 -12.6874 -3.68239 -1.73041 
1 -12.3583 -1.79411 0.166564 
2 -12.448 -0.0196897 1.80008 
1 -12.4384 -3.64245 1.89278 
1 -10.777 -3.63559 -0.0982802 
1 -10.7919 -1.82743 -1.70771 
1 -10.6004 -1.86104 1.72059 
1 -8.97055 -3.66888 -1.69004 
2 -8.94344 -3.6279 1.69647 
1 -8.98446 -1.78779 -0.0245836 
1 -7.13546 -3.5372 -0.121272 
1 -7.15408 -1.82405 -1.80751 
1 -7.22271 -1.72621 1.72694 
1 -5.31056 -3.64421 -1.83873 
2 -5.33538 -3.58267 1.67855 
2 -5.40084 -1.75164 -0.151479 
2 -5.4468 0.156558 1.76129 
1 -7.21712 -0.0065936 -0.0819302 
1 -3.5816 -3.5143 -0.0224772 
1 -3.59067 -1.8115 -1.79588 
2 -1.84293 -3.56493 -1.92875 
2 -3.55615 -1.62028 1.8104 
1 -1.80827 -3.51863 1.82573 
1 -1.79609 -1.79753 0.0142327 
1 -0.164467 -1.60008 1.70734 
1 -0.0539993 -1.68062 -1.55985 
1 -0.0814104 0.0802395 -0.0211379 
1 -1.82159 -0.0901584 -1.70855 
1 -0.0997757 -3.52798 0.0113055 
2 3.49281 -3.51949 0.131907 
2 1.65744 -3.54217 -1.83334 
1 3.50653 -1.75404 -1.79774 
1 1.71342 -3.5667 1.92048 
1 3.63295 -1.76777 1.95816 
1 1.82189 -1.82816 0.133551 
2 1.80057 -0.0375575 1.91456 
1 1.78139 -0.123582 -1.71902 
1 7.12261 -3.64409 -0.114484 
1 7.07814 -1.70431 -1.85204 
1 7.15317 -1.95671 1.81837 
1 5.41286 -3.61011 -1.9069 
1 5.44097 -3.60315 1.84349 
2 5.47787 -1.87695 -0.0130021 
1 5.36849 0.0495004 1.85991 
1 10.6055 -3.51556 -0.0667775 
1 10.5715 -1.89303 1.76629 
1 10.5356 -1.71002 -1.63291 
1 8.79466 -3.47254 -1.79252 
1 8.90102 -3.6522 1.68786 
2 8.82798 -1.73497 -0.0388004 
1 12.2125 -3.38685 -1.812 
1 12.3923 -1.85835 0.0373341 
2 12.3573 -3.65177 1.69244 
1 8.82933 0.0826709 -1.81897 
2 14.1875 -3.49609 -0.411061 
1 14.5948 -1.22283 -1.2064 
1 14.3135 -1.85837 1.5936 
2 -5.12683 -12.6144 3.5639 
2 -2.84709 -14.2275 2.87659 
1 -0.295841 -14.0642 3.39196 
1 3.32096 -14.0375 3.27938 
1 3.54272 -12.457 5.30758 
1 5.20059 -12.3326 3.35392 
1 -10.7418 -10.8853 3.41077 
1 -10.54 -9.02063 5.5449 
2 -8.82119 -8.95541 3.64166 
2 -8.62727 -10.9803 5.30445 
1 -7.00241 -10.9134 3.52264 
1 -5.31695 -10.8565 5.3173 
1 -7.13124 -9.07691 5.33864 
2 -5.39826 -8.98694 3.61313 
2 -3.16691 -12.4397 5.21549 
1 -1.69665 -12.0625 3.37763 
1 -1.63262 -10.55 5.25049 
1 -3.56034 -10.5957 3.53284 
2 -3.49519 -9.03713 5.36969 
1 -1.80569 -8.80954 3.48193 
1 0.168488 -8.7818 5.43145 
2 -0.07031 -12.3436 5.27897 
1 1.60658 -12.3587 3.53249 
1 0.0396617 -10.4509 3.55784 
1 1.76295 -10.5955 5.38437 
2 3.3858 -10.5879 3.60265 
1 3.58505 -8.83996 5.45434 
1 1.74955 -8.77666 3.55815 
1 7.3 -10.9774 3.81857 
1 5.35242 -10.8041 5.36769 
2 7.16901 -8.98305 5.33789 
2 5.29535 -8.93636 3.54059 
1 8.95087 -10.6594 5.46396 
2 9.02169 -8.98284 3.53742 
1 -12.4893 -5.37789 3.69109 
1 -10.8105 -7.20795 3.75001 
1 -10.7912 -5.4362 5.27229 
1 -8.78357 -7.17748 5.40202 
1 -8.9082 -5.50671 3.62396 
1 -7.08877 -7.16735 3.65594 
1 -7.1413 -5.4409 5.37699 
1 -5.24984 -7.19728 5.4366 
2 -5.28478 -5.4736 3.65829 
1 -1.67926 -7.18403 5.36709 
1 -3.56406 -7.18196 3.60703 
1 -3.53406 -5.40418 5.49756 
2 -1.84492 -5.29063 3.51278 
1 0.0210289 -7.06819 3.42313 
2 -0.013693 -5.46309 5.24604 
1 1.87661 -7.17171 5.29595 
1 3.53704 -7.18213 3.55625 
1 3.52513 -5.33109 5.34987 
1 1.81512 -5.34938 3.56467 
1 7.20094 -7.22312 3.58717 
1 5.38089 -7.23833 5.37038 
2 7.1109 -5.39967 5.24771 
2 5.21952 -5.36177 3.55292 
2 10.8009 -8.8395 5.38789 
1 10.9008 -7.21213 3.39235 
1 10.7356 -5.49992 5.25143 
1 8.97699 -7.16971 5.39016 
1 9.00097 -5.54338 3.56506 
2 12.5828 -5.3922 3.55479 
1 -13.9738 -3.52181 3.61395 
1 -12.5453 -3.69458 5.55823 
1 -12.4089 -1.71903 3.63171 
1 -12.5815 -0.161348 5.30277 
1 -10.6991 -1.88159 5.3254 
1 -10.6934 -3.62936 3.55944 
1 -8.99245 -3.7774 5.35059 
2 -9.00492 -1.77784 3.61102 
1 -7.18264 -1.78368 5.35999 
2 -7.15943 -3.59214 3.6339 
1 -5.37578 -3.50882 5.36314 
1 -5.56744 -1.66671 3.55226 
1 -5.45471 0.0837916 5.35304 
2 -3.83182 -1.68191 5.30871 
2 -1.77412 -3.5172 5.39484 
1 -3.69811 -3.46442 3.60678 
1 -1.76715 -1.77672 3.68034 
1 0.0153976 -1.74333 5.28553 
1 -1.77664 0.0822856 5.37511 
1 -0.0494775 -3.46588 3.46411 
1 1.79656 -3.5864 5.22267 
1 3.62516 -1.70684 5.33752 
1 3.67355 -3.51982 3.54199 
1 1.81399 -1.73226 3.53759 
1 7.13227 -1.91849 5.37504 
1 7.2459 -3.54713 3.56745 
1 5.29215 -3.49738 5.36464 
1 5.33115 -1.75556 3.61633 
1 5.29903 0.0799689 5.38456 
2 7.17071 -0.0783942 3.63962 
2 10.6966 -1.90521 5.31249 
1 10.6329 -3.76175 3.4441 
2 9.02037 -3.64668 5.49597 
1 8.97784 -1.80461 3.56412 
2 12.5008 -1.8694 3.38714 
1 8.91402 0.0107354 5.41706 
1 12.6343 -3.68303 5.30227 
1 14.2834 -3.66269 3.3914 
1 14.3503 -1.51197 5.20574 
1 12.6098 0.121953 5.36946 
2 14.1918 0.0542363 3.20154 
1 -8.8661 -9.0076 7.15913 
1 -5.17455 -9.11442 10.541 
1 -5.26444 -10.8803 8.72856 
1 -6.98365 -10.7871 7.04558 
2 -7.06585 -9.08621 8.88131 
1 -5.29645 -8.9857 7.13447 
1 -1.45625 -12.2937 7.11387 
2 -1.7562 -8.81655 10.6746 
1 -1.64579 -10.6716 8.96545 
1 -3.54254 -10.9162 7.10272 
1 -3.55517 -8.89731 8.79798 
1 -1.75409 -8.9053 7.15922 
1 0.0617862 -8.83234 8.89789 
1 0.113933 -10.5594 7.17589 
1 1.87566 -12.2976 7.06921 
1 1.7435 -10.6699 8.9947 
1 3.61798 -10.522 7.07916 
1 3.53728 -8.88229 8.99963 
1 1.81199 -8.77297 7.14355 
1 1.79943 -8.92858 10.8231 
1 6.96564 -10.5871 7.23833 
1 5.24823 -8.72 10.895 
1 5.00991 -10.624 9.05817 
1 7.05614 -8.85086 9.02498 
1 5.34715 -8.7263 7.15473 
1 8.93485 -8.80749 7.19317 
1 -10.7438 -5.52914 9.25438 
2 -10.52 -6.96927 7.14106 
1 -8.81167 -7.25384 8.98566 
1 -8.70314 -5.44933 7.1495 
1 -8.81333 -5.273 10.6426 
1 -7.00996 -7.19467 10.7432 
1 -7.15579 -5.4052 9.00326 
1 -5.41822 -7.29332 8.85932 
1 -7.15037 -7.37841 7.09661 
1 -5.53466 -5.39502 7.1303 
1 -5.51211 -5.39192 10.8403 
2 -3.63237 -7.17452 10.6208 
1 -1.93795 -5.32193 10.7598 
1 -1.83072 -7.11158 8.8568 
2 -3.76589 -5.35784 8.80576 
1 -3.6044 -7.11086 7.05015 
1 -1.66298 -5.39495 7.14204 
1 0.0879022 -7.13626 10.6368 
1 -0.0299388 -7.17299 7.16282 
2 -0.0308461 -5.31407 9.04573 
1 3.50859 -7.15541 10.7553 
1 1.86814 -5.28301 10.6584 
1 1.95402 -7.09776 9.0301 
1 3.6396 -5.35854 8.87595 
1 3.64256 -7.1632 7.15279 
2 1.90927 -5.50306 7.15087 
1 7.03245 -7.02633 10.7463 
1 5.38016 -5.25463 10.5976 
1 5.40533 -7.17026 9.04068 
1 7.12486 -5.33165 8.92697 
1 7.12712 -7.06845 7.16399 
2 5.30726 -5.47665 7.08012 
1 8.79507 -5.20398 10.8812 
1 10.4557 -5.17769 9.06439 
1 10.7255 -6.96998 7.1392 
1 8.87794 -7.1299 9.04997 
1 8.91457 -5.3925 7.19114 
2 -11.9782 -1.78726 7.34077 
1 -8.96238 -1.61772 10.567 
1 -10.9262 -3.07374 9.67094 
2 -10.6593 -3.95401 7.28353 
1 -8.80544 -3.60618 8.92159 
2 -9.27479 -1.8284 7.2465 
1 -11.0172 -0.542275 9.38517 
1 -7.04863 -3.40544 10.7444 
1 -5.41789 -1.70087 10.636 
1 -7.21829 -1.75642 8.88227 
2 -5.47084 -3.56144 8.83157 
1 -7.21974 -3.54307 7.02859 
1 -5.52789 -1.78367 7.24552 
1 -7.1425 0.0244076 10.5558 
1 -3.66321 -3.4326 10.5752 
1 -1.84356 -1.63608 10.5243 
1 -3.71779 -1.78319 8.79206 
2 -1.84887 -3.56169 8.96476 
1 -3.62632 -3.64036 7.14008 
1 -1.92246 -1.72046 7.17591 
2 0.00672821 -3.4834 7.11685 
1 -1.67683 0.0549466 8.84654 
1 -3.61651 -0.101913 10.6686 
1 0.0969898 -1.74006 8.81391 
1 -0.081115 -3.4771 10.5956 
1 1.81179 -1.80417 7.13658 
2 3.63218 -3.36067 7.22088 
1 1.71617 -1.66913 10.531 
1 1.87922 -3.56134 8.88123 
1 3.55484 -1.63921 8.8916 
1 3.66204 -3.48156 10.5336 
1 3.53808 0.0959971 10.7013 
1 0.0416439 0.0733409 10.5017 
1 3.5584 0.0372822 7.14693 
2 0.0975674 -0.0115267 7.01611 
1 7.03892 -3.71169 7.18992 
1 5.41406 -3.50623 9.07462 
1 5.54336 -1.78759 7.13002 
1 7.17286 -1.72963 9.04933 
1 7.14716 -3.6012 10.799 
1 5.37276 -1.62508 10.7814 
1 7.22169 -0.0225117 7.1871 
1 5.32383 -0.0818772 8.93547 
1 7.11134 -0.0608841 10.6881 
1 10.9343 -3.70936 7.0864 
1 8.81675 -1.88558 7.17565 
1 8.97192 -1.96216 10.8201 
2 10.6317 -2.0058 8.95861 
1 8.73653 -3.51492 8.91134 
2 10.6474 -0.00907217 7.06492 
1 12.4387 0.0439191 8.84748 
2 8.98012 -0.0279647 9.01351 
2 12.574 -1.71934 7.10709 
1 -0.0299503 -8.74952 12.359 
1 -3.74594 -5.20343 12.3183 
1 -1.81102 -6.96286 12.4099 
1 -0.0810813 -5.23553 12.1303 
1 -0.0357597 -6.51705 13.9832 
1 1.86647 -4.9986 13.9704 
2 1.77008 -6.92052 12.4452 
1 3.54105 -5.24247 12.3071 
1 -5.4421 0.0244012 12.6631 
1 -5.39422 -3.31679 12.439 
1 -7.24929 -1.68007 12.3891 
1 -0.0391733 -0.135631 14.3527 
1 -3.49312 0.0637254 14.1488 
1 -3.54808 -1.74843 12.5774 
2 -0.0861911 -3.64209 13.9215 
1 -1.97129 -3.58517 12.3015 
1 -1.73469 -1.71101 14.1537 
1 -1.63999 0.0214249 12.3476 
1 3.38474 -0.14387 14.2441 
1 1.49944 -0.051977 12.4026 
1 1.70916 -2.05998 14.0059 
1 1.76254 -3.53757 11.9882 
1 3.46682 -1.67232 12.3857 
1 0.002656 -1.7665 12.2076 
1 7.24751 -1.60713 12.4682 
2 5.38088 -3.38321 12.4294 
1 -7.27523 1.91118 -12.536 
1 -5.52241 3.59933 -12.4628 
2 -1.86447 1.91832 -14.2459 
2 -3.79115 1.76716 -12.5423 
1 -1.89185 3.48591 -12.4277 
1 -0.101526 3.57532 -14.2325 
2 0.00220739 -0.0693352 -14.2861 
1 -3.61759 -0.171434 -14.2654 
2 -0.0457998 1.85653 -12.3993 
1 3.51028 3.5368 -14.1234 
1 3.51584 1.73514 -12.4628 
2 1.68484 3.67813 -12.4478 
1 1.76071 1.82807 -14.2859 
1 5.26244 1.5222 -14.2697 
1 7.174 1.79014 -12.5078 
1 5.33585 3.59636 -12.608 
2 5.3467 -0.00306938 -12.2893 
1 -1.99256 7.17207 -12.3913 
1 -3.6676 5.28647 -12.5348 
1 -0.14728 5.48824 -12.5728 
1 1.72022 7.0886 -12.4283 
1 3.40571 5.35258 -12.4016 
1 -12.4104 2.17249 -7.19452 
1 -10.9201 2.73204 -9.13348 
1 -9.15017 1.60317 -10.6115 
2 -8.76829 3.81055 -8.65989 
2 -9.1885 1.88157 -7.26543 
1 -10.7779 3.9707 -6.93097 
1 -11.025 0.394934 -9.58253 
1 -7.39116 3.49331 -10.6924 
2 -5.4824 1.8099 -10.6597 
2 -7.23956 1.77314 -8.86064 
1 -5.52459 3.71003 -8.78905 
1 -7.15024 3.71892 -6.93353 
2 -5.44625 1.89186 -7.07329 
1 -3.76603 3.55746 -10.5732 
1 -2.01715 1.78975 -10.6898 
1 -3.7778 1.72352 -8.88947 
2 -1.7636 3.53766 -8.86843 
2 -3.53628 3.59916 -7.06716 
1 -1.76831 1.82595 -7.11138 
1 0.00804035 3.61173 -7.00057 
1 -0.162787 3.74226 -10.7109 
1 -0.148102 1.72384 -8.9113 
1 -0.136876 0.0273264 -10.5828 
1 -3.7786 0.071767 -10.6181 
1 3.47047 3.5315 -10.7721 
1 1.66384 1.87538 -10.6322 
1 3.35713 1.90628 -8.9099 
2 1.60251 3.64349 -8.93458 
1 3.51688 3.5221 -7.13848 
2 1.73289 1.75769 -7.12117 
1 3.56546 0.0364147 -7.10994 
1 3.42977 0.126134 -10.6503 
2 6.98688 3.66555 -10.6273 
1 5.21902 1.93144 -10.567 
1 7.16886 1.7958 -9.01401 
1 5.17356 3.59671 -8.90555 
1 6.97133 3.50799 -7.21618 
1 5.32143 1.76356 -7.21492 
2 7.0799 0.0771769 -7.2159 
2 7.34048 -0.104011 -10.6902 
2 5.26829 0.0730876 -9.10327 
1 8.98096 2.0908 -10.8384 
2 10.5778 1.71155 -8.89991 
1 8.93179 3.54585 -8.83552 
1 8.83409 1.87052 -7.07229 
1 10.7173 3.52076 -7.10838 
2 12.3865 1.64674 -6.97583 
1 10.5236 0.0721382 -10.663 
1 -10.5442 5.39201 -8.82609 
1 -10.8631 7.14604 -6.90016 
1 -9.0776 7.27943 -8.74937 
1 -8.96452 5.55189 -6.84676 
1 -8.52954 5.47274 -10.581 
2 -5.62907 5.33771 -10.6212 
1 -7.01191 7.4124 -10.3674 
1 -7.11329 5.57234 -8.70229 
1 -5.37824 7.31646 -8.73241 
2 -7.1898 7.29545 -6.9855 
1 -5.32451 5.56467 -6.98839 
2 -3.83308 7.2162 -10.7495 
1 -1.93815 5.34997 -10.8398 
1 -1.92332 7.29966 -8.92437 
2 -3.73176 5.43082 -8.84088 
1 -3.58242 7.2091 -7.01005 
1 -1.80635 5.44389 -7.02179 
2 -0.245397 5.53877 -9.03834 
1 -0.0870572 7.18641 -7.14818 
1 -0.0323141 7.38764 -10.843 
1 3.33796 7.14155 -10.6377 
1 1.61956 5.41978 -10.6886 
2 1.70744 7.21549 -8.86959 
1 3.52045 5.35928 -8.92925 
1 3.38398 7.14314 -7.01165 
1 1.71604 5.38086 -7.12134 
1 7.07953 6.86298 -10.6223 
1 5.17162 5.4495 -10.6184 
1 7.1786 5.30861 -8.81564 
1 5.31521 7.00106 -8.70635 
1 7.2086 7.10233 -7.21668 
1 5.16053 5.35836 -7.12319 
1 9.02027 5.08823 -10.6032 
1 10.7952 5.17563 -8.85603 
1 9.0092 7.04746 -8.9707 
1 8.76834 5.19405 -7.19632 
2 10.5745 6.83922 -7.1275 
1 -9.12907 9.03327 -6.91066 
1 -5.19328 9.18254 -10.5263 
1 -5.25412 10.76 -8.59561 
1 -7.09078 9.19156 -8.63231 
1 -5.37058 8.95727 -6.8031 
1 -6.97371 10.9025 -6.76614 
2 -1.87109 9.02945 -10.6398 
2 -2.08196 10.8064 -8.71069 
1 -3.7502 10.8284 -6.87851 
1 -3.64759 8.9437 -8.80542 
1 -1.8904 9.06508 -6.99151 
1 -0.162781 10.6856 -7.11292 
1 -0.0844301 8.88665 -8.84146 
1 -0.264157 12.3239 -8.95945 
1 1.66948 8.99962 -10.6429 
1 1.70987 10.6547 -8.786 
1 3.41658 10.6548 -7.06391 
1 3.41184 8.96093 -8.86285 
1 1.66836 9.00723 -7.04161 
2 1.42113 12.6405 -7.14995 
1 5.23912 8.58685 -10.4452 
1 5.41502 10.467 -8.74338 
1 7.33324 10.5887 -7.23301 
1 7.10285 8.71202 -8.80899 
1 5.08771 8.80105 -7.09294 
1 9.02953 8.77814 -7.15356 
1 -1.90834 12.5246 -6.90362 
2 -14.1957 3.59992 -3.41718 
1 -14.3088 0.120285 -3.52435 
2 -12.5962 3.73517 -5.15862 
1 -12.5707 0.236668 -5.3433 
1 -12.5648 1.77259 -3.5639 
2 -10.7821 1.83732 -5.35725 
1 -10.8135 3.66845 -3.46063 
1 -8.90214 3.70423 -5.36049 
2 -9.13761 1.82833 -3.53472 
1 -7.15244 1.81774 -5.29498 
2 -7.23132 3.66989 -3.58376 
1 -5.41255 3.61771 -5.19007 
1 -5.26499 1.83862 -3.53801 
1 -5.2546 0.0434983 -5.2832 
2 -7.10218 0.000395728 -3.50502 
1 -3.43161 1.79318 -5.27981 
1 -1.77847 3.67796 -5.27941 
1 -3.56905 3.53808 -3.57623 
1 -1.90974 1.66411 -3.52625 
1 -0.0169302 1.74199 -5.35465 
1 -0.0690501 3.63231 -3.58934 
1 -3.66542 -0.023674 -3.46343 
1 -0.130702 -0.0684052 -3.55614 
1 -1.83718 0.0839739 -5.27234 
1 3.52434 1.73365 -5.36659 
2 1.79259 3.4822 -5.27253 
1 3.52924 3.62058 -3.64944 
2 1.73235 1.58044 -3.5311 
1 3.60479 0.0969025 -3.64505 
1 7.06832 1.68988 -5.39149 
1 7.06107 3.53282 -3.64855 
1 5.26184 3.48333 -5.52464 
1 5.26186 1.81851 -3.66498 
1 5.34995 0.0450037 -5.41906 
1 10.692 1.60417 -5.25138 
1 10.6138 3.4103 -3.57398 
2 8.90855 3.59943 -5.33278 
1 8.86365 1.68458 -3.57627 
1 10.6328 -0.0598544 -3.56439 
1 12.4218 1.66443 -3.58049 
1 12.4166 3.38834 -5.37768 
1 14.3578 3.06543 -3.60944 
1 -12.4004 5.53161 -3.40544 
1 -10.8708 7.47582 -3.31231 
1 -10.7237 5.40353 -4.97643 
2 -9.04303 7.34404 -5.05759 
1 -8.95989 5.55856 -3.40957 
1 -7.11104 7.2151 -3.4288 
1 -7.16334 5.54351 -5.25382 
1 -5.41325 7.27555 -5.12823 
1 -5.35353 5.37209 -3.5495 
1 -1.92044 7.27199 -5.24188 
1 -3.59885 7.12402 -3.51841 
1 -3.66451 5.42639 -5.27373 
1 -1.81044 5.38586 -3.51353 
1 0.044438 5.38232 -5.34533 
2 -0.0138787 7.07803 -3.59699 
1 1.64169 7.24004 -5.45027 
2 3.42489 7.2169 -3.59772 
1 3.5396 5.3589 -5.39804 
1 1.73526 5.41099 -3.70568 
1 7.21831 7.0788 -3.7868 
1 7.04855 5.24065 -5.48756 
2 5.24302 7.18959 -5.45854 
1 5.30994 5.3464 -3.74465 
1 10.6812 6.9075 -3.57232 
1 10.8821 5.32428 -5.34469 
1 8.85644 7.03367 -5.50124 
1 8.737 5.31775 -3.56107 
2 12.5484 5.07985 -3.46599 
1 -10.6814 9.12649 -5.0791 
1 -8.89405 10.8651 -5.05938 
1 -8.84732 9.1482 -3.3285 
1 -10.6574 10.6341 -3.1367 
1 -7.27028 10.9111 -3.24417 
1 -5.46865 10.9466 -4.93591 
1 -7.06788 9.08243 -5.11946 
1 -5.39642 9.00737 -3.40894 
1 -5.34321 12.7321 -3.2802 
1 -1.8025 10.8615 -5.18928 
1 -3.60018 10.8149 -3.29329 
2 -3.63013 9.11353 -5.10185 
1 -1.83968 9.07242 -3.54387 
1 -0.197573 9.01638 -5.31305 
1 -0.0228084 10.8122 -3.48434 
1 -1.75556 12.5897 -3.44169 
1 -3.67238 12.5314 -5.08444 
1 -0.149886 12.7068 -5.2164 
2 1.47938 10.8511 -5.34884 
1 3.48662 10.759 -3.85595 
1 3.38249 9.01901 -5.41015 
1 1.62234 9.00096 -3.67333 
1 1.6629 12.4966 -3.4479 
1 3.73541 12.5607 -5.41848 
1 7.17016 10.7186 -3.70802 
2 5.40816 10.7534 -5.64525 
1 7.08106 8.94758 -5.68884 
2 5.34597 9.0123 -3.77841 
1 10.7113 8.58546 -5.29919 
1 9.00723 10.3551 -5.44894 
1 8.86838 8.80913 -3.70144 
1 -3.44888 14.3547 -3.45719 
1 -0.0501887 14.4493 -3.4679 
2 1.77118 14.1265 -5.18972 
1 3.59445 14.2862 -3.65222 
1 1.74372 14.307 -1.80166 
1 5.44062 12.5146 -3.6266 
1 -14.2637 3.28126 0.139003 
1 -14.2885 1.7243 -1.71281 
1 -14.2553 1.66501 1.95802 
1 -14.2713 0.132537 0.00295754 
1 -12.5009 1.78365 0.0423546 
2 -12.4758 3.60345 1.84266 
1 -12.5791 3.54635 -1.84815 
1 -12.4442 0.0233925 -1.72674 
2 -10.8191 3.54018 0.0126199 
1 -10.8849 1.80964 -1.69794 
1 -10.7669 1.82642 1.86542 
1 -8.96141 3.56563 -1.76588 
1 -9.01653 3.61267 1.83844 
1 -8.84371 1.98764 -0.024487 
1 -10.6307 0.0810883 0.0255589 
2 -8.90689 0.173558 1.74724 
1 -8.9912 -0.0261718 -1.67716 
1 -7.1703 3.60607 -0.0110769 
1 -7.17696 1.85995 -1.79522 
1 -7.23861 1.90631 1.72434 
1 -5.38256 3.52881 -1.80025 
1 -5.37886 3.50096 1.8406 
1 -5.4878 1.80713 -0.00206203 
1 -5.37745 -0.00179467 -1.81059 
2 -3.6654 3.42009 0.0759336 
1 -3.66784 1.79935 -1.78933 
2 -1.79165 3.49168 -1.77375 
1 -3.54123 1.744 1.75865 
1 -1.85525 3.59368 1.80002 
1 -1.80077 1.72868 0.0559832 
1 -3.62824 0.0210416 -0.0573944 
1 -0.0411118 1.66217 -1.75489 
1 0.0107948 3.58058 0.00935227 
1 0.039717 1.75816 1.69529 
1 -1.74354 0.0192066 1.86697 
2 3.5728 3.61463 -0.0553532 
1 3.58902 1.76684 -1.84384 
2 1.79506 3.57378 -1.91791 
1 3.61479 1.82061 1.84629 
1 1.77768 3.753 1.6988 
2 1.82299 1.81041 0.0470457 
2 3.64968 0.00881264 0.0843685 
1 6.99428 -0.00320587 0.0251155 
1 7.15077 3.60274 -0.0723718 
1 7.18157 1.90868 -1.86027 
1 7.03622 1.97154 1.90327 
1 5.43047 3.67088 -1.99523 
1 5.36733 3.61252 1.75724 
2 5.43634 1.81318 -0.141604 
1 5.32756 0.012471 -1.90089 
1 12.3397 0.0252289 1.59977 
2 8.78169 0.0833849 1.72602 
1 10.5834 0.123625 0.0667794 
1 10.4939 3.76627 -0.0760134 
1 10.7195 1.98226 1.64789 
2 10.5513 1.80487 -1.7808 
1 8.81268 3.50439 -1.96723 
1 8.77992 3.61145 1.67126 
1 8.7915 1.87061 0.0311005 
1 12.3604 1.8463 0.0862544 
1 12.3549 3.74807 1.67687 
1 12.4663 3.39041 -1.84028 
2 12.3935 0.0152282 -1.42443 
1 14.1098 3.64673 -0.0642504 
2 14.1705 1.72315 -1.59954 
1 14.3058 2.31985 1.84805 
1 14.3971 0.480256 0.530977 
1 -12.7985 5.24807 -0.209489 
1 -12.5616 7.28209 -1.43885 
1 -12.4146 7.19113 1.86051 
1 -10.8779 7.01826 0.0124053 
1 -10.7929 5.42974 -1.75818 
1 -10.8938 5.36974 1.76383 
1 -8.98827 7.26892 -1.68269 
2 -9.03104 7.07465 1.58804 
1 -9.0209 5.38221 -0.0505306 
1 -7.12773 7.05105 -0.0246069 
1 -7.20596 5.5325 -1.76313 
2 -5.25992 7.14033 -1.64724 
1 -7.18803 5.2897 1.84018 
1 -5.37967 7.05625 1.80562 
1 -5.39424 5.26252 0.0590807 
1 -3.56044 7.08632 0.017519 
1 -1.94032 7.12767 -1.81132 
1 -1.78135 7.24536 1.80941 
1 -3.64324 5.26186 -1.76742 
1 -3.62819 5.38227 1.87149 
2 -1.77724 5.40604 0.0156181 
1 -0.00263022 7.10188 -0.109278 
1 -0.118266 5.33169 -1.88611 
1 0.055635 5.51827 1.75785 
1 3.53045 7.21895 -0.195501 
1 1.78744 7.20499 -1.86818 
2 1.74928 7.22301 1.74218 
1 3.59293 5.33369 -1.88605 
2 3.67049 5.49695 1.79399 
1 1.68762 5.44513 -0.100106 
1 7.04827 7.08095 -0.088484 
1 7.09662 5.38555 -1.91827 
2 5.49044 7.11655 -2.02664 
1 7.11384 5.43202 1.65539 
1 5.39472 7.21833 1.76972 
1 5.46288 5.29214 -0.120047 
1 10.5007 7.02596 -0.332125 
1 10.6529 5.36214 1.71702 
1 10.5844 5.24484 -1.91758 
1 8.8319 7.13054 -1.86452 
2 9.01472 7.26997 1.73883 
1 8.86283 5.44511 -0.113364 
2 11.9781 7.26393 1.60463 
1 12.3604 7.08442 -1.66777 
1 12.3855 5.34877 -0.178813 
2 -8.80968 10.8641 -1.43485 
1 -8.9628 10.8872 1.60186 
2 -10.7468 8.99374 -1.33912 
1 -10.7326 8.97258 1.64054 
1 -8.70305 8.93603 0.0994953 
1 -6.9563 10.7341 0.00721817 
1 -5.26739 10.7632 1.86876 
1 -5.28245 10.7171 -1.68176 
1 -7.04261 8.93381 -1.72008 
1 -7.05308 9.00568 1.73956 
1 -5.32909 8.96609 -0.0421202 
1 -3.59261 10.8022 -0.0277236 
2 -1.77567 10.7261 1.87041 
1 -1.8151 10.7917 -1.62262 
1 -3.50502 9.03322 -1.60934 
2 -3.68273 8.92763 1.7755 
1 -1.86639 8.87102 0.0141291 
1 -3.40712 12.6799 -1.54647 
1 -0.0706816 8.91189 1.84219 
1 -0.032274 10.6118 0.126864 
2 -0.0333913 8.96176 -1.67771 
1 3.58816 10.7248 -0.0162903 
1 1.8425 10.564 1.74271 
1 1.86649 10.7271 -1.85802 
1 3.44453 9.00146 -2.02986 
1 3.60932 8.90601 1.72272 
1 1.83257 8.94611 -0.0873076 
2 1.72213 12.3831 -0.0512523 
1 7.09193 10.4643 -0.118852 
1 5.39248 10.6262 1.60872 
2 5.24826 10.7043 -1.88998 
1 7.15921 8.92826 -2.07431 