ITEM: TIMESTEP
1020000
ITEM: NUMBER OF ATOMS
1289
ITEM: BOX BOUNDS pp pp pp
-100 100
-100 100
-100 100
ITEM: ATOMS type x y z 
1 -1.69726 -7.12645 -12.4698 
1 -3.54138 -5.35071 -12.5638 
1 -0.0115952 -5.36879 -12.4678 
1 1.66779 -7.04382 -12.5034 
1 3.50896 -5.24863 -12.5611 
1 -6.94296 -1.91168 -12.4314 
2 -5.55079 -3.75191 -12.2135 
1 -5.5706 0.0741817 -12.6581 
2 -1.85196 -1.77323 -14.299 
2 -3.80681 -1.9149 -12.5108 
1 -1.86893 -3.55785 -12.4433 
1 -0.157324 -1.80625 -12.4485 
1 -0.120213 -3.7268 -14.2209 
1 7.09435 -1.77686 12.3605 
2 -1.97029 -0.0240836 -12.45 
2 5.23704 -3.29254 12.397 
2 3.39445 -3.36946 -14.0461 
1 1.62793 -3.46044 -12.4594 
1 3.55562 -1.76052 -12.2169 
1 1.46149 -1.93974 -14.3905 
2 1.79206 -0.119142 -12.3745 
2 3.33873 -0.286301 -14.3739 
1 5.31609 -1.79338 -14.2922 
2 7.01879 -1.74402 -12.361 
2 5.21089 -3.45927 -12.3503 
1 -1.94384 -12.4354 -7.14878 
1 1.78762 -12.3812 -7.30233 
1 -8.97865 -8.99825 -7.00518 
2 -5.26718 -10.5707 -8.72038 
1 -5.50463 -8.94593 -10.6934 
1 -7.09749 -10.6464 -6.94085 
1 -6.99395 -8.91731 -8.78794 
1 -5.48824 -8.77485 -6.88346 
1 -2.13636 -10.784 -8.97401 
1 -1.84078 -8.91318 -10.7393 
1 -3.74414 -10.5751 -6.83542 
2 -3.6679 -8.78336 -8.86896 
1 -1.914 -8.85357 -7.0899 
1 -0.20803 -10.7013 -10.4624 
2 -0.0823649 -10.6545 -7.25098 
1 -0.08917 -8.841 -8.92761 
2 1.86907 -10.5526 -8.9987 
1 1.56672 -8.899 -10.5913 
1 3.59953 -10.6576 -7.29666 
2 3.55087 -8.74756 -8.92697 
1 1.80414 -8.91666 -7.14915 
1 5.34769 -10.589 -8.95622 
1 7.22861 -8.87323 -8.89429 
1 5.38883 -8.72564 -7.22295 
1 7.27917 -10.5301 -7.2239 
1 5.50408 -8.76924 -10.7967 
1 9.05547 -8.87428 -7.18425 
1 -10.6956 -5.30939 -8.70292 
1 -8.88413 -5.3632 -10.5258 
1 -8.90039 -7.23259 -8.93427 
2 -8.9953 -5.30332 -7.01136 
2 -10.7276 -7.12237 -7.02438 
1 -7.17882 -7.12723 -10.5047 
1 -5.56571 -5.47092 -10.5802 
1 -7.20779 -5.45813 -8.79534 
1 -5.39389 -7.09874 -8.75568 
2 -7.23167 -7.18101 -6.98154 
1 -5.34518 -5.31813 -7.1132 
2 -3.62203 -7.12968 -10.8839 
1 -1.86594 -5.28315 -10.7922 
1 -1.88832 -7.09425 -9.13093 
1 -3.7054 -5.3111 -9.06096 
1 -3.71015 -7.13685 -7.03176 
2 -1.95558 -5.27289 -7.14546 
2 -0.123564 -5.27329 -9.09004 
1 0.0605922 -7.11775 -10.743 
2 -0.115196 -7.17158 -7.04552 
2 3.50019 -6.99119 -10.831 
1 1.67758 -5.25602 -10.8937 
1 1.61419 -7.06958 -8.93253 
1 3.43864 -5.37234 -9.01936 
1 3.43854 -7.01473 -7.10841 
2 1.79737 -5.18138 -7.10772 
1 7.14454 -7.00705 -10.5597 
1 5.41902 -5.36396 -10.7818 
1 5.3237 -7.00045 -8.96171 
1 7.12213 -5.3125 -8.88852 
1 7.10446 -6.98706 -7.23907 
1 5.23081 -5.35326 -7.04113 
1 8.95061 -5.09989 -10.7179 
1 10.6962 -5.10989 -8.84409 
1 10.7835 -6.94152 -7.18249 
2 8.96472 -7.00226 -8.8585 
1 8.96497 -5.24935 -7.10285 
1 -12.4624 -1.73937 -6.94536 
1 -10.7997 -1.80383 -8.85797 
1 -9.01814 -1.84848 -10.4757 
1 -10.9087 -3.62754 -6.97444 
1 -9.00144 -3.49058 -8.79123 
1 -9.07988 -1.8446 -6.96195 
1 -8.99102 -0.0610307 -8.89102 
1 1.59546 -2.03411 14.2654 
1 -7.29157 -3.49085 -10.5061 
1 -5.2487 -1.9353 -10.5932 
1 -7.17045 -1.81247 -8.85916 
1 -5.37276 -3.64214 -8.87699 
1 -7.23057 -3.52977 -7.11261 
1 -5.4884 -1.97314 -7.1427 
1 -7.09408 -0.189669 -10.7435 
1 -5.52294 -0.0427945 -8.92663 
1 -7.19442 -0.177183 -7.15689 
1 -3.58911 -3.6444 -10.7171 
1 -1.98412 -1.74697 -10.6335 
1 -3.73658 -1.73597 -8.85124 
2 -2.00302 -3.46645 -8.90716 
1 -3.61599 -3.51396 -7.04199 
1 -1.98507 -1.73161 -7.11389 
1 -0.166578 -1.88579 -8.89942 
1 -0.214413 -3.52244 -10.7352 
1 -3.79564 -0.00531295 -10.8102 
1 -0.157827 -3.42964 -7.10555 
1 3.41628 -3.64177 -10.6298 
1 1.61975 -1.82329 -10.7574 
1 1.58581 -3.56952 -9.04932 
2 3.48839 -1.83887 -9.06551 
1 3.6101 -3.50697 -7.11539 
1 1.64318 -1.82843 -7.16131 
2 1.74569 -0.0761348 -8.87885 
1 7.23006 -3.61422 -10.8081 
1 5.23267 -1.70239 -10.718 
1 7.13189 -1.90223 -9.03053 
1 5.38846 -3.60403 -9.08633 
1 7.12923 -3.58969 -7.09111 
1 5.43965 -1.768 -7.16692 
1 9.01066 -1.79285 -10.6409 
1 10.8071 -3.59804 -7.06013 
1 8.89234 -3.56917 -8.89303 
2 8.84548 -1.74079 -7.05412 
2 10.6994 -1.95277 -8.80771 
1 12.6945 -1.6933 -7.14448 
1 -5.45858 -12.4904 -3.32013 
1 -1.69999 -13.9018 -5.0333 
1 -3.62457 -12.4446 -5.21495 
1 0.142907 -12.4967 -5.51602 
2 0.271016 -14.0733 -3.47821 
1 3.69275 -12.4057 -5.76484 
1 -10.6635 -9.01612 -5.10942 
1 -8.87138 -10.7256 -5.17895 
2 -8.89088 -8.86055 -3.31099 
1 -7.29769 -10.7358 -3.36505 
1 -5.55369 -10.7851 -5.19335 
1 -7.15515 -8.80851 -5.13212 
1 -5.3764 -8.92688 -3.48581 
1 -1.70862 -12.2717 -3.46503 
2 -1.80822 -10.6718 -5.42765 
1 -3.62433 -10.7193 -3.56567 
1 -3.71812 -8.81909 -5.27929 
2 -1.92733 -8.78916 -3.55915 
2 0.238581 -10.6982 -3.579 
2 2.15764 -12.5862 -3.74308 
1 0.0587208 -8.96729 -5.32548 
1 1.82526 -10.6823 -5.44252 
1 3.63394 -10.5908 -3.7057 
1 3.56165 -8.89878 -5.5025 
1 1.8882 -8.7607 -3.57968 
1 5.07057 -12.4816 -3.76455 
2 7.06142 -10.7023 -3.6871 
1 5.43138 -10.6083 -5.66249 
1 7.10041 -8.75926 -5.61518 
2 5.36747 -8.80128 -3.75267 
1 8.90199 -10.7603 -5.40828 
2 8.78135 -8.76974 -3.83152 
1 10.6801 -8.8318 -5.38457 
1 -12.7524 -5.39508 -3.71069 
1 -10.7501 -7.0535 -3.56421 
1 -10.8718 -5.49272 -5.34358 
2 -8.87829 -7.0578 -5.15697 
1 -9.01211 -5.2341 -3.44387 
1 -6.99351 -7.03272 -3.43683 
1 -7.06085 -5.30559 -5.23056 
1 -5.41536 -7.01238 -5.2738 
1 -5.38992 -5.23518 -3.43167 
1 -1.92831 -7.1188 -5.28056 
1 -3.74969 -7.08465 -3.51953 
1 -3.70276 -5.3517 -5.27527 
1 -1.89441 -5.41013 -3.54689 
2 -0.221309 -5.2457 -5.25119 
1 -0.0730026 -7.14656 -3.54187 
2 1.83879 -7.02755 -5.23984 
1 3.66216 -6.98641 -3.52887 
1 3.42573 -5.18391 -5.32533 
1 1.83523 -5.14977 -3.46517 
1 6.93877 -6.95703 -3.68595 
1 5.22428 -7.0113 -5.44548 
1 7.10147 -5.23077 -5.35317 
1 5.37688 -5.25686 -3.64071 
1 10.8203 -7.17232 -3.57051 
1 10.9869 -5.31501 -5.31324 
2 8.92283 -6.98561 -5.51276 
2 8.99831 -5.35938 -3.52341 
1 12.6826 -5.25575 -3.34065 
1 -14.2646 -3.50602 -3.35214 
1 -12.5344 -3.48366 -5.18197 
2 -12.6206 -1.69115 -3.42318 
1 -10.7399 -1.83432 -5.16393 
2 -10.8985 -3.67766 -3.39094 
1 -9.08665 -3.65901 -5.21164 
2 -9.1123 -1.84108 -3.33429 
2 -9.09411 -0.0787011 -5.2497 
1 -10.8271 -0.0520623 -3.38637 
2 -7.17722 -1.89364 -5.1512 
1 -7.14149 -3.70069 -3.35947 
1 -5.32857 -3.53754 -5.25907 
1 -5.42657 -1.85981 -3.38145 
1 -5.37054 0.0998572 -5.31692 
1 -3.70943 -1.72071 -5.15353 
1 -2.04401 -3.48145 -5.31184 
1 -3.65735 -3.61802 -3.47645 
1 -1.93683 -1.85306 -3.51035 
1 -0.133514 -1.75721 -5.40072 
1 -0.0620311 -3.44 -3.66405 
1 1.733 -3.57649 12.2689 
1 1.7938 -3.46692 -5.34888 
1 3.5847 -1.7373 -5.33559 
1 3.66877 -3.42859 -3.67007 
2 1.75411 -1.68463 -3.65603 
1 3.35173 -1.73767 12.5311 
1 7.08298 -1.7164 -5.36137 
1 7.07319 -3.48978 -3.62826 
1 5.42737 -3.46336 -5.34181 
1 5.44002 -1.63699 -3.61384 
2 -0.162187 -3.84417 14.1188 
1 10.6736 -1.72661 -5.35727 
1 10.711 -3.58836 -3.5447 
1 8.94904 -3.52933 -5.33337 
1 8.9744 -1.79999 -3.60257 
1 12.252 -1.65121 -3.38393 
2 12.6256 -3.31837 -5.07926 
2 12.4694 -0.0503101 -5.23138 
1 -1.75682 -3.65776 12.3538 
1 -1.57173 -1.8265 14.0337 
2 14.0986 -3.12933 -2.92284 
2 14.1787 -0.102537 -3.49649 
1 -5.23086 -12.9966 0.000666296 
2 -7.36227 -12.5726 1.50454 
1 -3.2243 -14.3295 -0.153491 
1 -1.74621 -14.1816 -1.98949 
1 -1.56059 -14.3559 1.63851 
1 -3.50377 -12.5349 -1.82531 
1 0.016478 -14.2828 -0.359446 
1 2.25451 -14.3481 -1.98671 
1 3.67986 -14.2589 0.286693 
2 1.36658 -14.1712 1.70306 
1 4.88591 -14.1634 -2.00833 
1 -10.9354 -10.2173 0.0302026 
1 -10.8946 -8.99238 -2.00117 
1 -9.09344 -10.8302 -1.47287 
2 -8.95321 -10.6976 1.55129 
1 -8.99888 -8.8573 -0.133971 
2 -10.7322 -8.84755 1.9691 
2 -7.21336 -12.4102 -1.57191 
1 -7.2461 -10.598 -0.0207426 
2 -5.2011 -10.6564 -1.73237 
2 -5.41351 -10.7642 1.54699 
1 -7.08586 -8.88226 -1.73626 
1 -7.11698 -8.81542 1.60108 
1 -5.32165 -8.80368 0.0355858 
1 -1.73388 -12.4527 -0.0318558 
1 -3.51098 -12.3195 1.67779 
1 -3.50091 -10.7059 0.0522275 
1 -1.91469 -10.6459 -1.7644 
1 -1.80851 -10.5194 1.81739 
1 -3.56519 -8.86621 -1.72004 
1 -3.45597 -8.88948 1.80475 
1 -1.77995 -8.86497 -0.0398193 
1 0.00727077 -8.92169 -1.79637 
1 -0.13832 -12.233 1.66592 
2 0.119409 -12.2754 -1.73973 
1 -0.063301 -10.4915 -0.0361938 
1 -0.00671198 -8.90772 1.69958 
1 3.60366 -12.3811 1.7365 
2 1.82863 -12.3356 0.0109051 
1 3.50868 -12.3569 -1.73699 
1 3.54433 -10.6423 -0.041357 
1 1.89483 -10.5726 -1.8087 
1 1.77467 -10.6309 1.74206 
1 3.49765 -8.89876 -1.82533 
1 3.68667 -8.7757 1.66721 
1 1.64694 -8.8698 0.0368978 
2 6.87674 -12.5289 -1.95799 
1 5.37472 -12.5194 0.0130566 
1 7.0648 -12.5527 1.68234 
1 7.03921 -10.7123 -0.217 
1 5.26705 -10.6883 -1.90649 
1 5.45098 -10.706 1.60181 
1 7.0821 -8.9303 -1.82117 
2 7.06054 -8.90206 1.62642 
1 5.32974 -8.85975 -0.143887 
1 8.92218 -10.816 -1.98676 
1 8.70794 -12.5006 -0.1656 
1 10.5811 -8.90894 -1.96865 
1 10.6765 -9.05274 1.73449 
2 8.92191 -9.00267 -0.221014 
1 -12.5336 -5.38485 0.16747 
1 -12.582 -6.9924 -2.01521 
2 -10.8504 -7.31388 -0.0843398 
1 -10.7853 -5.46634 -1.78394 
1 -10.8997 -5.56993 1.78886 
1 -8.85901 -6.98008 -1.81838 
1 -8.96954 -7.18251 1.76156 
1 -9.14688 -5.38218 0.0182761 
1 -7.3003 -7.05305 0.00238248 
1 -7.30019 -5.33006 -1.66517 
1 -5.35431 -7.14025 -1.65463 
2 -7.34033 -5.49006 1.99389 
1 -5.38087 -7.14951 1.69039 
1 -5.48465 -5.36852 0.11609 
1 -3.58599 -7.09381 0.0515312 
1 -1.77424 -7.18697 -1.69737 
1 -1.71016 -7.22952 1.87554 
1 -3.69092 -5.3375 -1.73018 
1 -3.63891 -5.32902 1.6795 
2 -1.76881 -5.40297 0.0933553 
1 -0.0127095 -5.27269 -1.82115 
1 -0.0913836 -7.08342 -0.0962802 
1 -0.0141559 -5.42383 1.79572 
1 3.58597 -7.05649 0.0312769 
2 1.81357 -7.02799 -1.84363 
1 1.76893 -7.14179 1.69291 
2 3.7234 -5.28946 -1.78142 
1 3.53808 -5.32609 1.63255 
1 1.7617 -5.32367 -0.0317037 
1 7.20422 -7.13017 0.00140704 
1 5.33139 -7.0977 -1.72423 
1 7.12164 -5.21768 -1.79653 
1 5.41568 -7.10852 1.65968 
2 7.35785 -5.3015 1.86551 
1 5.45639 -5.26075 -0.00575804 
1 10.5701 -7.23704 -0.113616 
1 10.6326 -5.47939 1.69312 
1 10.7177 -5.50438 -1.76725 
1 8.69187 -7.10636 -1.91427 
1 8.97773 -7.314 1.71466 
1 8.9126 -5.40869 -0.012172 
2 12.6002 -5.49414 -0.289596 
1 12.4035 -7.24999 1.65641 
1 12.3314 -7.44011 -1.72858 
1 -14.2284 -3.44267 0.394412 
2 -14.2507 -1.70633 -1.55503 
1 -14.3882 -1.60393 1.95275 
1 -12.5409 -3.57341 -1.53544 
1 -12.5568 -1.77149 0.250119 
1 -12.6733 0.00692199 -1.48041 
1 -12.5521 -3.61033 1.91589 
1 -10.8373 -3.58724 0.177863 
1 -10.7522 -1.86328 -1.53002 
1 -10.8512 -1.75818 1.89517 
1 -9.08632 -3.54787 -1.51911 
2 -9.15213 -3.67607 1.95019 
1 -9.13072 -1.77757 0.202668 
1 -10.8688 0.0168254 0.0750459 
1 -3.47235 -1.71871 12.5992 
1 -7.31549 -3.64191 0.154169 
1 -7.23516 -1.88081 -1.64908 
1 -7.23619 -1.79551 1.79603 
1 -5.44145 -3.57809 -1.67322 
2 -5.39008 -3.4646 1.76576 
2 -5.48221 -1.76367 -0.0867659 
1 -3.5673 -3.50655 -0.019752 
1 -3.67843 -1.75936 -1.72374 
2 -1.849 -3.61883 -1.78502 
2 -3.6017 -1.71871 1.86154 
1 -1.70457 -3.46324 1.7489 
1 -1.86068 -1.65986 -0.0651625 
1 -0.102173 -1.61497 -1.75263 
1 -0.0287944 0.0750754 -0.0674947 
1 0.0263104 -3.54186 0.0235163 
1 -0.0306458 -1.7935 1.61045 
2 3.54146 -3.53495 0.0900751 
2 1.75823 -3.47007 -1.86531 
1 3.62778 -1.67213 -1.86848 
1 1.71706 -3.52521 1.76533 
1 3.50369 -1.80003 1.73526 
1 1.7605 -1.7269 -0.0225748 
1 0.178209 -1.88336 12.3344 
1 -5.27621 -3.41133 12.4369 
2 1.63282 -0.0622901 1.83608 
1 7.10564 -3.55016 0.0595644 
1 7.20125 -1.66407 -1.85888 
1 7.12695 -1.78927 1.85491 
1 5.41601 -3.44717 -1.87292 
1 5.42137 -3.58888 1.73937 
2 5.43388 -1.63912 0.163331 
1 -7.24587 -1.74568 12.3526 
1 5.28671 0.113337 1.84869 
1 10.6579 -3.65492 -0.00980613 
1 10.7495 -1.72862 1.68247 
1 10.5367 -1.66394 -1.78287 
1 8.91141 -3.48008 -1.71911 
1 9.01217 -3.46482 1.88288 
2 8.89804 -1.73596 0.0194155 
1 12.169 -3.52978 -1.75604 
1 12.2765 -1.72351 -0.0153383 
2 12.5718 0.0158067 -1.61819 
1 3.81277 -5.17609 12.494 
1 1.99127 -5.00596 14.0722 
2 12.4851 -3.61236 1.58493 
2 14.1635 -3.3226 -0.409462 
1 14.8003 -1.18575 -1.23967 
1 14.4285 -1.77525 1.38505 
2 -5.46929 -12.7015 3.29236 
2 -3.38851 -14.125 3.36523 
1 -0.309117 -14.0691 3.74688 
2 -3.61948 -12.4319 5.14909 
2 -0.206808 -12.3333 5.20795 
1 3.40016 -14.0709 3.48455 
1 3.1498 -12.4721 5.35518 
1 5.32725 -12.4455 3.54131 
1 -10.2208 -11.0865 3.69139 
1 -10.4727 -9.2464 5.44375 
2 -8.84093 -9.07388 3.51517 
2 -8.3132 -11.0796 5.32062 
1 -7.11011 -10.9009 3.36193 
1 -5.51452 -10.8205 5.33882 
1 -7.14567 -8.97806 5.53922 
2 -5.41124 -8.89069 3.50657 
1 -1.7874 -12.2729 3.4583 
1 -1.8131 -10.5992 5.28985 
1 -3.73111 -10.6947 3.51312 
2 -3.5829 -8.91546 5.37008 
1 -1.86447 -8.93114 3.63988 
1 0.0876731 -8.86074 5.31182 
1 0.159075 -10.5982 3.48917 
1 1.5871 -12.4365 3.51165 
1 1.6981 -10.5234 5.35471 
2 3.42104 -10.6691 3.57861 
1 3.59403 -8.82825 5.2935 
1 1.8767 -8.81991 3.39482 
1 7.1444 -10.8549 3.70997 
1 5.31529 -10.9667 5.44678 
2 7.15725 -8.88394 5.50905 
2 5.31892 -8.97361 3.5101 
1 8.78665 -10.843 1.70154 
1 8.96741 -10.8439 5.54818 
2 8.90165 -8.82421 3.53416 
2 10.5024 -8.7135 5.41165 
1 -12.5557 -5.49119 3.64876 
1 -10.8153 -7.19979 3.70433 
1 -10.7815 -5.51383 5.48202 
1 -8.9043 -7.31451 5.43116 
1 -9.14822 -5.47316 3.71189 
1 -7.22153 -7.18908 3.67461 
1 -7.23728 -5.44241 5.35788 
1 -5.37407 -7.2836 5.47349 
2 -5.31137 -5.55432 3.66224 
1 -1.80396 -7.23936 5.39444 
1 -3.56844 -7.24645 3.61321 
1 -3.65466 -5.45606 5.40342 
2 -1.79254 -5.3747 3.43271 
1 0.00406268 -7.30532 3.44656 
2 0.0305182 -5.33026 5.27285 
1 1.7954 -7.15268 5.19897 
1 3.55063 -7.12353 3.44356 
1 3.51413 -5.35086 5.33278 
1 1.8234 -5.37068 3.49651 
1 7.09455 -7.11317 3.54495 
1 5.45916 -7.11764 5.3129 
2 7.24749 -5.40406 5.19263 
2 5.2693 -5.35977 3.52135 
1 10.7728 -7.25861 3.43588 
1 10.849 -5.56445 5.34645 
1 8.93465 -7.12452 5.50302 
1 9.11743 -5.45161 3.51115 
2 12.4718 -5.53248 3.34644 
1 -14.1516 -3.51415 3.67533 
1 -12.6701 -3.47245 5.51468 
1 -14.3258 0.12703 3.71204 
2 1.76621 -6.90875 12.291 
1 -12.4503 -1.85232 3.70277 
1 -10.635 -1.7124 5.45839 
1 -10.8972 -3.66028 3.76507 
1 -9.04204 -3.69286 5.48 
2 -9.01076 -1.83283 3.72517 
1 -7.30837 -1.7445 5.50437 
2 -7.23133 -3.56037 3.7741 
1 -5.38309 -3.61573 5.46736 
1 -5.55358 -1.74019 3.64735 
2 -3.7795 -1.7956 5.33991 
2 -1.80276 -3.57161 5.34098 
1 -3.61571 -3.56124 3.62475 
1 -1.75796 -1.73121 3.51839 
1 0.0324392 -3.60397 3.46025 
1 0.0133746 -1.71203 5.24282 
1 -1.78147 -6.83717 12.3827 
1 0.0828568 -6.48475 14.0542 
1 1.70413 -3.50302 5.20129 
1 3.55077 -1.72964 5.14134 
1 3.52625 -3.56058 3.54251 
1 1.72317 -1.82408 3.43506 
1 1.86738 -0.0103049 5.26343 
1 7.12628 -1.67844 5.30382 
1 7.18685 -3.45395 3.62929 
1 5.40625 -3.46386 5.27865 
1 5.29062 -1.79604 3.40584 
2 7.00345 0.0790087 3.61548 
1 5.28791 0.0735296 5.27778 
2 10.8235 -1.77037 5.24122 
1 10.8621 -3.63803 3.47643 
2 9.07558 -3.64722 5.25437 
1 8.92553 -1.63975 3.49131 
2 12.5767 -1.62034 3.35289 
1 12.5955 -3.68418 5.40192 
1 14.1764 -3.46957 3.43483 
1 14.1101 -1.78875 5.29671 
1 -8.81049 -9.14384 7.28891 
1 -5.3003 -8.95307 10.6615 
1 -5.15336 -10.7457 8.9723 
1 -6.81838 -10.9142 7.36077 
2 -7.05806 -9.05314 8.90986 
1 -5.43024 -8.9753 7.22612 
1 -1.75935 -12.3351 7.08667 
2 -1.77743 -8.96529 10.6962 
1 -1.56113 -10.7715 8.99511 
1 -3.60399 -10.7442 7.24618 
1 -3.44445 -8.99237 9.03962 
1 -1.88453 -8.80905 7.23999 
1 -0.0730487 -8.7599 8.85686 
1 -0.217263 -10.5158 7.05568 
1 1.45928 -12.2863 7.06237 
1 1.65076 -10.506 8.76036 
1 3.36411 -10.7057 7.07573 
1 3.58016 -8.90678 8.76574 
1 1.80385 -8.81842 7.0395 
1 1.84601 -8.82223 10.7135 
1 7.11978 -10.6571 7.27507 
1 5.23651 -8.82994 10.5387 
1 5.25639 -10.572 8.84491 
1 7.16124 -8.89751 8.95569 
1 5.28972 -8.84772 7.06423 
1 8.92222 -8.8976 7.36162 
1 -10.5436 -5.48514 8.81678 
2 -10.4831 -7.35204 7.1711 
1 -8.81854 -7.4085 9.13572 
1 -8.74782 -5.52378 7.07108 
1 -8.96229 -5.34513 10.5632 
1 -6.99772 -7.18136 10.8226 
1 -7.1859 -5.51236 8.96666 
1 -5.42067 -7.09981 8.86943 
1 -7.20332 -7.11479 7.17462 
1 -5.42762 -5.46031 6.98064 
1 -5.47008 -5.29439 10.8323 
2 -3.60787 -7.10133 10.7865 
1 -1.86134 -5.32289 10.5873 
1 -1.78135 -7.08442 8.92941 
2 -3.63061 -5.31108 8.78672 
1 -3.59977 -7.21301 7.15162 
1 -1.78537 -5.45212 7.07594 
2 -0.00495866 -5.47779 8.92095 
1 -0.0664588 -7.20072 10.684 
1 -0.104579 -7.24781 7.11838 
1 3.67378 -7.04867 10.6899 
1 1.89487 -5.19374 10.5977 
1 1.93444 -7.18504 9.00289 
1 3.55002 -5.34014 8.91516 
1 3.5533 -7.1412 7.09274 
2 1.78918 -5.49938 7.14774 
1 6.96141 -6.98394 10.4249 
1 5.36273 -5.2631 10.5433 
1 5.3566 -7.13391 8.82319 
1 7.09051 -5.15573 8.84019 
1 7.14758 -7.05516 7.15692 
2 5.32748 -5.32637 7.15246 
1 8.76344 -5.22718 10.6356 
1 10.6989 -5.18449 8.85996 
1 10.7453 -7.025 7.32849 
1 8.8719 -6.89399 8.8486 
1 8.8898 -5.28151 7.20965 
2 -12.1029 -1.67208 7.31471 
1 -9.03512 -1.77555 10.5073 
1 -10.8928 -3.02738 9.53979 
2 -10.8214 -3.83564 7.13654 
1 -8.77808 -3.68456 8.77976 
2 -9.12442 -1.83024 7.24747 
1 -11.1183 -0.617439 9.39565 
1 -7.23392 -3.59074 10.642 
1 -5.46969 -1.69421 10.6428 
1 -7.14566 -1.77469 8.81917 
2 -5.36927 -3.56878 8.91344 
1 -7.12282 -3.6775 7.11355 
1 -5.40966 -1.83269 7.0914 
1 -3.61891 -3.41073 10.7272 
1 -1.68493 -1.74882 10.7314 
1 -3.50379 -1.70056 8.80982 
2 -1.86414 -3.54805 8.79183 
1 -3.63555 -3.58156 7.07873 
1 -1.91005 -1.75629 7.01443 
1 0.0111316 -3.38337 10.4793 
1 0.00748134 -1.7367 8.83412 
1 -3.70684 -5.33975 12.5682 
2 0.0320881 -3.47968 7.01124 
1 1.77894 -1.71962 6.96023 
2 3.64218 -3.47912 6.98987 
1 1.82207 -1.7093 10.4992 
1 1.8385 -3.49964 8.81169 
1 3.61277 -1.64349 8.96273 
1 3.57161 -3.48162 10.6903 
1 0.0480091 -5.22462 12.0801 
1 3.50072 -0.202585 7.02924 
1 1.76687 -0.0278602 8.80591 
1 7.11082 -1.70816 8.78733 
1 6.90144 -3.43101 10.706 
1 5.24258 -1.67405 10.5912 
1 5.33806 -1.65686 6.96888 
1 5.32675 -3.52591 8.77724 
1 7.0736 -3.41341 6.98004 
1 0.0292433 -8.45076 12.6071 
1 7.24789 -0.0451625 7.03108 
1 5.35195 -0.0352569 8.86476 
1 10.8581 -3.59393 7.09043 
1 8.89972 -1.77681 6.96205 
1 8.92356 -1.81552 10.6887 
1 8.71595 -3.51046 8.78606 
2 10.5876 -1.97228 8.78919 
2 12.5325 -1.54292 7.11678 
2 10.5527 0.126496 7.14998 
1 -0.196373 0.0326666 -7.32466 
1 -0.128075 -0.108065 -10.6755 
1 -1.96699 0.0451573 -8.96188 
1 3.62972 0.117607 -10.7374 
2 7.22882 0.110697 -10.6879 
2 -7.09411 0.0779307 -3.47024 
1 1.62996 0.0304369 -5.46104 
1 -14.5422 0.0793403 0.318945 
1 -9.14558 -0.0317823 -1.64509 
1 -7.30304 -0.0198973 -0.0317787 
1 -1.87588 0.00929587 5.38484 
1 8.97868 0.0722794 5.25063 
2 14.3381 -0.0514008 3.38261 
1 -8.78884 0.152917 8.86063 
1 -3.29795 0.00507149 14.2409 
1 -5.39611 0.0906984 8.98841 
2 -0.0198532 0.0329724 7.00664 
1 -1.67695 0.00953661 8.89228 
1 -5.34062 -0.186258 12.7967 
1 -7.30506 1.69747 -12.3367 
1 -5.69606 3.73561 -12.3728 
2 -1.93592 1.79233 -14.2337 
2 -3.72585 1.93556 -12.4913 
1 -1.80086 3.63194 -12.297 
2 -0.0735889 1.67578 -12.3414 
1 -0.0668516 3.7294 -14.0943 
1 3.40132 3.69568 -14.2556 
1 3.45848 1.74261 -12.4816 
2 1.65922 3.54644 -12.3492 
1 1.78464 1.85283 -14.3951 
1 4.92442 1.75477 -14.3408 
1 6.93396 1.87235 -12.7168 
1 5.19082 3.5098 -12.5214 
2 5.12379 0.0855408 -12.5018 
1 -1.72664 7.17947 -12.5875 
1 -3.51114 5.33785 -12.476 
1 -0.00982167 5.41597 -12.4215 
1 1.69856 7.12248 -12.2222 
1 3.31688 5.39967 -12.4047 
1 -12.366 1.74466 -7.20932 
1 -9.4467 3.10474 -11.1017 
1 -9.28863 0.692382 -11.026 
2 -8.85968 3.62955 -8.71845 
2 -8.92095 1.67719 -7.04259 
1 -10.8149 3.6803 -7.13611 
1 -10.5471 1.77849 -8.94024 
1 -7.19307 3.55281 -10.6068 
2 -5.39788 1.77041 -10.6797 
2 -7.33764 1.67136 -9.06136 
1 -5.42901 3.60785 -8.92889 
1 -7.17494 3.59183 -6.99268 
2 -5.52146 1.70885 -7.124 
1 -3.64066 3.51518 -10.6104 
1 -1.99288 1.72966 -10.7024 
1 -3.66045 1.74553 -8.88705 
2 -1.90439 3.56717 -8.85055 
2 -3.6297 3.55952 -6.99789 
1 -2.00164 1.67303 -6.99198 
1 -0.147797 3.36073 -10.5295 
1 -0.223483 1.69128 -8.90521 
1 -0.143934 3.56254 -7.0661 
1 -3.75997 -0.0315819 -7.10453 
1 3.46025 5.3141 12.4467 
1 1.63918 7.06141 12.5564 
1 -0.0398376 5.27529 12.4039 
1 3.51136 3.50118 -10.6914 
1 1.69597 1.6312 -10.6445 
1 3.52652 1.77874 -8.94118 
2 1.82822 3.52021 -8.90957 
1 3.55703 3.62204 -7.1412 
2 1.81438 1.76097 -7.08197 
1 3.70001 -0.0306619 -7.21431 
1 -3.58901 5.36955 12.6028 
2 7.00785 3.65124 -10.738 
1 5.42016 1.84993 -10.6835 
1 7.13058 1.93176 -8.90213 
1 5.33533 3.61112 -8.98436 
1 7.13172 3.50341 -7.07754 
1 5.26284 2.04133 -7.13433 
2 7.03591 0.15768 -7.076 
2 5.28204 0.0734429 -8.95794 
1 -1.54686 7.14428 12.4714 
1 8.92264 1.97782 -10.6647 
2 10.6694 1.96787 -8.80757 
1 8.8722 3.47283 -8.7812 
1 8.95218 1.80609 -7.12416 
1 10.9567 3.78895 -7.07951 
2 10.6892 0.0328818 -7.14457 
1 8.76528 -0.0206745 -8.82527 
2 12.541 1.87682 -6.97638 
1 10.482 0.126655 -10.6023 
1 -10.5322 5.39286 -8.8217 
1 -10.6938 7.11194 -6.90268 
1 -8.87759 7.13495 -8.83305 
1 -8.88435 5.40233 -6.94649 
1 -8.82638 5.36735 -10.6387 
2 -5.34609 5.43754 -10.8175 
1 -7.19175 7.23393 -10.5494 
1 -7.08776 5.44414 -9.00339 
1 -5.43753 7.23522 -8.83383 
2 -6.99177 7.10954 -6.98917 
1 -5.43281 5.28778 -7.02723 
2 -3.53838 7.1452 -10.7719 
1 -1.84984 5.50973 -10.6537 
1 -1.90082 7.2244 -8.75326 
2 -3.61296 5.4112 -8.77886 
1 -3.68758 7.12446 -6.94249 
1 -1.79046 5.39424 -6.92944 
1 -0.103751 7.1404 -10.6378 
2 -0.136542 5.35061 -8.90555 
1 -0.0283898 7.25809 -7.03409 
1 3.59458 7.22339 -10.6809 
1 1.6231 5.26317 -10.6313 
2 1.8202 7.09879 -8.96395 
1 3.54821 5.28656 -8.96874 
1 3.5702 7.13726 -7.19457 
1 1.63284 5.39449 -7.11941 
1 7.22752 6.99422 -10.4568 
1 5.18734 5.36099 -10.7324 
1 7.1269 5.27159 -8.94335 
1 5.2374 7.02852 -8.9089 
1 7.21941 6.99112 -7.14061 
1 5.26726 5.33282 -7.18153 
1 9.00481 5.17124 -10.6972 
1 10.754 5.08706 -8.93441 
2 10.6728 6.83781 -7.13439 
1 8.96799 6.9357 -8.83599 
1 8.81922 5.21803 -7.1321 
1 -8.87212 8.86687 -6.97244 
1 -4.90076 9.06732 -10.5636 
1 -5.29733 10.6832 -8.80862 
1 -6.9907 9.0321 -8.85863 
1 -5.342 9.045 -6.93572 
1 -7.12459 10.5446 -6.89294 
2 -1.84159 8.98735 -10.5871 
2 -1.91619 10.7223 -8.74147 
1 -3.61341 10.7841 -7.05901 
1 -3.55831 8.79852 -8.72172 
1 -1.80772 8.84789 -7.01186 
1 -0.130907 10.4605 -7.12816 
1 -0.0462242 8.82082 -8.83035 
1 -0.166115 12.2469 -8.89659 
1 1.6916 8.96085 -10.5818 
1 1.92218 10.741 -8.90534 
1 3.69532 10.7872 -7.09188 
1 3.62011 8.94666 -8.93074 
1 1.92062 9.01818 -7.19992 
2 1.6413 12.4617 -7.06205 
1 5.42715 8.68824 -10.5572 
1 5.41618 10.6385 -8.89844 
1 7.17277 10.5734 -7.16119 
1 7.09895 8.74902 -8.79693 
1 5.33508 8.87509 -7.08829 
1 9.07838 8.8926 -7.14595 
1 -1.61161 12.3803 -6.9121 
2 -14.1257 3.23639 -3.50611 
1 -12.5408 0.0367417 -5.24525 
2 -12.5141 3.58863 -5.29671 
1 -14.3393 0.149605 -3.46025 
1 -12.4009 1.70295 -3.43689 
2 -10.8321 1.863 -5.28613 
1 -10.7554 3.6221 -3.44262 
1 -8.9767 3.72751 -5.31555 
2 -9.0384 1.82774 -3.41393 
1 -7.23985 1.84749 -5.34322 
2 -7.12401 3.50846 -3.4688 
1 -5.41165 3.56273 -5.26867 
1 -5.32967 1.84697 -3.52563 
1 5.32206 3.59775 12.586 
1 -3.61462 1.67478 -5.16372 
1 -1.85234 3.57944 -5.39031 
1 -3.64564 3.60191 -3.50355 
1 -1.76148 1.7672 -3.61603 
1 -0.199748 1.84746 -5.49164 
1 -0.17169 3.63081 -3.64444 
1 -3.54486 0.0144155 -3.4429 
1 -1.85135 -0.0767379 -5.3147 
1 3.60434 1.79215 -5.34472 
2 1.702 3.65141 -5.34569 
1 3.45921 3.65362 -3.67632 
2 1.5354 1.74188 -3.60979 
1 7.19237 1.77102 12.4053 
1 7.13336 1.92057 -5.16838 
1 7.09871 3.55526 -3.47936 
1 5.35051 3.70868 -5.29016 
1 5.27632 1.90545 -3.63565 
1 5.31944 0.094441 -5.36969 
1 10.6906 1.7742 -5.28227 
1 10.8271 3.57106 -3.54112 
2 8.98012 3.52083 -5.40548 
1 8.91493 1.84957 -3.42434 
1 12.6374 3.79259 -5.23826 
1 12.5596 1.8514 -3.6211 
1 14.3901 3.6841 -3.26634 
1 -12.6163 5.34751 -3.49973 
1 -10.7928 7.17752 -3.44132 
1 -10.8025 5.41307 -5.1435 
2 -8.88037 7.10979 -5.06739 
1 -8.96552 5.36502 -3.32331 
1 -7.10277 7.25553 -3.42973 
1 -7.11333 5.35249 -5.135 
1 -5.32444 7.07465 -5.15299 
1 -5.36197 5.47311 -3.43688 
1 -1.84989 7.13058 -5.25816 
1 -3.54605 7.19675 -3.56082 
1 -3.66048 5.4022 -5.19049 
1 -1.95042 5.37687 -3.55645 
1 -0.0195701 5.47697 -5.37726 
2 -0.0511712 7.20881 -3.59709 
1 1.81539 7.22754 -5.48589 
2 3.49764 7.13022 -3.66986 
1 3.44937 5.31739 -5.44786 
1 1.66052 5.40388 -3.5862 
1 7.27393 7.07378 -3.59956 
1 7.24219 5.28373 -5.25875 
2 5.31044 7.03318 -5.49973 
1 5.31483 5.30459 -3.61721 
1 10.531 6.93274 -3.45209 
1 10.6693 5.29374 -5.26456 
1 8.86096 7.07066 -5.31966 
1 9.01788 5.27395 -3.53705 
2 12.3615 5.35765 -3.36656 
1 -10.6355 8.96281 -5.26534 
1 -8.75402 10.8586 -5.13821 
1 -8.93005 8.88147 -3.38211 
1 -10.5414 10.6472 -3.57423 
1 -7.22373 10.762 -3.3468 
1 -5.40684 10.8387 -5.2053 
1 -7.09484 8.95428 -5.26386 
1 -5.33821 8.97165 -3.52501 
1 -1.85979 10.6882 -5.25578 
1 -3.62595 10.8089 -3.43335 
2 -3.57678 8.98783 -5.20283 
1 -1.85179 8.94715 -3.56912 
1 -0.0541875 10.6165 -3.48803 
1 -0.0742828 9.01406 -5.30786 
1 -1.85758 12.3658 -3.53655 
2 1.83787 10.6151 -5.33655 
1 3.4764 10.7524 -3.54357 
1 3.61689 9.05659 -5.30248 
1 1.8229 8.86283 -3.50795 
1 1.71849 12.4228 -3.53636 
1 3.60518 12.5599 -5.38558 
1 7.19965 10.8411 -3.54198 
2 5.32555 10.6428 -5.35624 
1 7.25368 8.91997 -5.24626 
2 5.42858 8.87524 -3.43658 
1 10.6017 8.72383 -5.20974 
1 8.91238 10.6137 -5.20206 
1 8.9944 8.81094 -3.46471 
1 -5.4054 12.4273 -3.34711 
1 -3.58177 12.4462 -5.30756 
1 -0.0372967 12.313 -5.15385 
1 -3.40595 14.1745 -3.55329 
1 -0.281938 14.16 -3.7236 
2 1.66866 13.9513 -5.18115 
1 3.55854 14.2425 -3.63752 
1 5.50216 12.557 -3.54077 
1 -14.3267 3.58514 0.0530201 
1 -14.3048 1.70447 -1.45429 
1 -14.4879 1.89997 2.03631 
2 -12.6119 3.64053 1.85333 
1 -12.6187 1.86569 0.128445 
1 -0.0469363 1.76841 12.2928 
1 -12.5999 3.61484 -1.68291 
2 -10.7667 3.60464 0.146195 
1 -10.865 1.74213 -1.58882 
1 -10.8099 1.81018 1.95604 
1 -9.08787 3.59102 -1.67531 
1 -9.04316 3.60092 1.90494 
1 -9.10569 1.78394 0.00442372 
2 -9.0266 0.0596941 1.76386 
1 1.78056 1.69048 14.1419 
1 -7.35414 3.55834 0.0914708 
1 -7.26224 1.85225 -1.578 
1 -7.29487 1.67927 1.75409 
1 -5.52423 3.63999 -1.75423 
1 -5.5263 3.55237 1.76655 
1 -5.45914 1.75614 -0.0335888 
1 3.0222 3.77709 14.2342 
1 -5.35489 0.0359602 -1.8525 
2 -5.49104 -0.0281694 1.84637 
2 -3.77664 3.5574 0.0572923 
1 -3.65839 1.74718 -1.8497 
2 -1.90454 3.60316 -1.80595 
1 -3.65862 1.70624 1.70753 
1 -1.79245 3.59138 1.70508 
1 -1.85031 1.80503 0.0267906 
1 -0.214213 1.74325 -1.71481 
1 -1.85422 -0.0138788 1.73145 
1 -3.6586 0.0771069 -0.106616 
1 -0.0800684 3.62079 0.0362893 
1 -1.94815 0.0363367 -1.92336 
1 -0.109161 1.73397 1.74065 
2 3.61938 3.56891 -0.0680169 
1 3.51496 1.81985 -1.97422 
2 1.69647 3.65232 -1.87673 
1 3.453 1.75431 1.77673 
1 1.83117 3.6982 1.71682 
2 1.69025 1.83045 0.00421289 
1 7.10295 3.58554 0.0333409 
1 7.17058 1.76457 -1.72921 
1 7.08323 1.94368 1.84536 
1 5.38385 3.67045 -1.82657 
1 5.23538 3.5457 1.95545 
2 5.39085 1.86895 0.0294905 
1 5.33252 0.154278 -1.89732 
1 10.654 3.64437 0.138728 
1 10.8411 1.83553 1.73838 
2 10.7499 1.86862 -1.70205 
1 8.9445 3.61446 -1.73429 
1 8.90499 3.50418 1.75264 
1 9.01817 1.86756 -0.0238776 
1 12.6117 3.54399 -1.7221 
1 12.5896 1.96908 0.117787 
2 8.93682 0.0828567 1.7893 
1 12.5231 0.0606596 1.54881 
1 12.5709 3.7248 1.72863 
1 14.4831 3.60191 0.0163819 
2 14.3572 1.61684 -1.71031 
1 14.402 2.09215 1.97538 
1 14.6297 0.398862 0.523289 
1 -12.6364 5.43935 0.105945 
1 -12.5592 7.14361 -1.78289 
1 -12.4389 7.12804 1.77216 
1 -10.8721 7.10775 -0.0147799 
1 -10.8015 5.39373 -1.68012 
1 -10.7826 5.25315 1.93565 
1 -9.03134 7.144 -1.65497 
2 -9.17546 7.16612 1.90688 
1 -9.0269 5.41138 0.161322 
1 -7.28756 7.12516 0.140862 
1 -7.34062 5.38471 -1.62417 
2 -5.50157 7.22113 -1.715 
1 -7.2938 5.36335 1.79205 
1 -5.46279 7.19113 1.78864 
1 -5.51422 5.46867 0.00559325 
1 -3.63944 7.12719 0.0503464 
1 -1.95472 7.17387 -1.87413 
1 -1.62915 7.27008 1.68005 
1 -3.74032 5.47024 -1.81421 
1 -3.80201 5.41179 1.78481 
2 -1.90618 5.43696 0.00860267 
1 0.0240305 5.39077 1.68125 
1 -0.10612 5.46449 -1.83835 
1 -0.0170495 7.13312 -0.00671175 
1 3.55529 7.21269 -0.0175591 
1 1.8813 7.19038 -1.69166 
2 1.73417 7.26975 1.71577 
1 3.52788 5.32798 -1.80252 
2 3.566 5.48313 1.77922 
1 1.7601 5.36839 -0.0967581 
1 7.22946 7.0729 0.139593 
1 7.15304 5.27275 -1.72831 
2 5.47796 6.91228 -1.71646 
1 7.09374 5.37424 1.86313 
1 5.4316 7.15692 1.75705 
1 5.3784 5.34019 0.0806554 
1 10.7366 7.04257 -0.149786 
1 10.6961 5.3466 1.79394 
1 10.7538 5.17308 -1.64926 
1 8.93535 6.92511 -1.74805 
2 8.93636 7.28725 1.71813 
1 8.95207 5.31592 0.0495433 
2 12.4242 6.99379 1.56647 
1 12.6495 6.96708 -1.49923 
1 12.6023 5.19718 0.0170248 
2 -8.88725 10.6865 -1.61784 
1 -9.04209 10.8208 1.91537 
2 -10.6587 8.97286 -1.58792 
1 -10.769 8.97515 1.83959 
1 -9.008 8.97385 0.157789 
1 -7.32649 10.7599 0.181137 
1 -5.45558 10.7197 1.78881 
1 -5.38857 10.6769 -1.70376 
1 -7.17136 9.01365 -1.6631 
1 -7.24739 8.98807 1.85812 
1 -5.58231 8.88271 0.10709 
1 -7.12603 12.5509 1.87485 
1 -3.66672 10.715 0.0465589 
2 -1.61395 10.7651 1.85528 
1 -1.92622 10.6219 -1.72382 
1 -3.68992 8.94662 -1.59472 
2 -3.67762 9.01937 1.86875 
1 -1.83622 8.98208 0.115908 
1 -3.61873 12.4689 -1.64495 
1 -1.75671 12.4822 -0.0560275 
1 0.0345619 8.95642 1.82694 
1 0.0384954 10.7563 0.0416521 
2 -0.107578 9.02765 -1.66324 
1 3.69844 10.7745 -0.00777211 
1 1.89986 10.7963 1.71699 
1 1.7527 10.7849 -1.77203 
1 3.52762 8.82556 -1.80186 
1 3.64864 9.04463 1.86878 
1 1.85428 9.10913 0.0198377 
1 7.20189 10.6548 -0.0681156 
1 5.31073 10.8996 1.80811 
2 5.38736 10.7656 -1.82577 
1 7.12732 8.81496 -1.74954 
1 7.17658 9.14899 1.82571 
2 5.45655 8.89817 0.096734 
1 10.8084 8.67522 -1.8917 
2 10.9302 8.91037 1.5638 
2 9.00583 10.7004 1.63633 
1 8.97514 10.6415 -1.88323 
1 9.0975 8.82089 -0.245686 
1 -7.26592 12.5149 -1.674 
2 -5.43804 12.4317 0.0803911 
2 -5.26234 14.1694 -1.74048 
1 -0.130565 12.4294 -1.81742 
2 -3.51613 12.4626 1.86519 
2 -3.58602 14.2151 0.101813 
1 -1.76581 14.4631 -1.7304 
2 -1.70583 14.2843 1.76494 