ITEM: TIMESTEP
1610000
ITEM: NUMBER OF ATOMS
1289
ITEM: BOX BOUNDS pp pp pp
-100 100
-100 100
-100 100
ITEM: ATOMS type x y z 
1 -1.77364 -6.88065 -12.4055 
1 -3.80538 -5.2527 -12.5035 
1 -0.037311 -5.30817 -12.3965 
1 1.7095 -7.04996 -12.3489 
1 3.62153 -5.21997 -12.4146 
1 -7.35819 -1.47786 -12.4195 
2 -5.56441 -3.41875 -12.3076 
2 -1.94572 -1.91562 -14.1824 
2 -3.79678 -1.77461 -12.4897 
1 -1.82327 -3.64104 -12.418 
1 0.057744 -1.89418 -12.3834 
1 -0.181137 -3.57677 -14.2218 
2 3.54255 -3.16399 -14.1705 
1 1.8032 -3.70173 -12.4699 
1 3.5183 -1.77174 -12.3899 
1 1.59009 -1.8877 -14.3735 
2 3.2722 -0.00311765 -14.2199 
2 1.57941 -0.0572454 -12.458 
1 5.33714 -1.59538 -14.2079 
2 7.16782 -1.6796 -12.4314 
2 5.3782 -3.49036 -12.3683 
1 -1.726 -12.6417 -7.23654 
1 -8.95636 -9.03743 -7.19295 
2 -5.23155 -10.5696 -8.99482 
1 -5.38684 -8.7566 -10.7645 
1 -7.10881 -9.01716 -8.97071 
1 -5.41651 -8.87967 -7.09351 
1 -6.95295 -10.6275 -6.99964 
1 -1.86542 -10.7844 -8.9855 
1 -1.8467 -8.73653 -10.8919 
1 -3.60772 -10.7862 -7.11698 
2 -3.58197 -8.7834 -8.95001 
1 -1.90837 -8.94137 -7.16637 
1 -0.123902 -10.2891 -10.7835 
1 -0.188334 -8.82857 -8.99509 
2 0.0289224 -10.653 -7.29912 
1 1.63036 -12.4833 -7.04997 
1 1.84274 -8.88474 -10.6634 
2 1.68932 -10.6353 -8.95929 
1 3.52191 -10.7462 -7.1411 
2 3.55357 -8.93533 -8.77874 
1 1.70423 -8.79148 -7.22791 
1 5.3151 -10.7837 -8.83605 
1 6.92719 -8.80395 -8.81078 
1 5.24371 -8.89719 -6.9603 
1 7.03908 -10.5788 -7.01466 
1 5.26776 -8.93277 -10.6524 
1 8.8331 -8.92869 -7.14955 
1 -10.8004 -5.23843 -8.79362 
1 -9.09885 -5.28156 -10.4061 
1 -9.09637 -7.24291 -8.92639 
2 -8.87183 -5.24802 -7.13906 
2 -10.6817 -7.22398 -6.99239 
1 -7.28275 -6.98231 -10.5999 
1 -5.55622 -5.30611 -10.7537 
1 -7.16153 -5.23804 -8.8377 
1 -5.38216 -7.08394 -8.92391 
2 -7.12872 -7.06887 -7.24525 
1 -5.38832 -5.23347 -7.06557 
2 -3.6273 -7.00106 -10.6619 
1 -1.9597 -5.19354 -10.687 
1 -1.90452 -7.04318 -8.91529 
1 -3.78828 -5.20487 -8.87538 
1 -3.82315 -7.10352 -7.0224 
2 -1.90453 -5.33136 -7.29722 
1 -0.0139689 -7.20051 -10.7134 
2 -0.094494 -7.2119 -7.20209 
2 0.0117493 -5.35753 -9.07921 
2 3.64713 -7.09017 -10.6907 
1 1.78136 -5.24054 -10.6756 
1 1.85902 -7.14252 -9.02667 
1 3.5965 -5.29989 -8.79888 
1 3.6402 -7.12624 -7.02924 
2 1.83719 -5.31673 -7.16074 
1 6.98771 -7.10593 -10.5883 
1 5.32242 -5.19049 -10.5305 
1 5.2708 -7.11272 -8.79164 
1 7.12268 -5.31264 -8.79224 
1 6.95605 -7.04746 -6.93645 
1 5.31352 -5.24133 -7.11897 
1 8.66557 -5.18138 -10.5851 
1 10.5392 -5.27393 -8.97136 
1 10.7957 -6.74837 -7.08493 
2 8.77789 -6.98419 -8.5827 
1 8.84367 -5.05512 -7.03746 
1 -12.5446 -1.74797 -7.04328 
1 -10.832 -1.97474 -8.69649 
1 -9.15956 -1.5434 -10.5782 
1 -10.9078 -3.73421 -6.88265 
1 -9.006 -3.48844 -8.85963 
1 -9.19431 -1.80328 -7.06111 
1 -9.0181 -0.124023 -8.78925 
1 -10.7966 0.0858914 -7.29451 
1 -11.1029 0.0207204 -9.79621 
1 -7.32348 -3.34316 -10.607 
1 -5.4943 -1.65703 -10.5649 
1 -7.43268 -1.88453 -8.66188 
1 -5.53587 -3.46804 -8.83629 
1 -7.19927 -3.60501 -7.07037 
1 -5.47591 -1.69463 -7.16138 
1 -7.19633 -0.0873356 -10.543 
1 -7.15372 -0.0596489 -6.97771 
1 -3.75782 -3.59698 -10.6459 
1 -1.80391 -1.84651 -10.7312 
1 -3.72595 -1.80233 -9.00642 
2 -1.88874 -3.37278 -8.88824 
1 -3.73516 -3.54117 -7.12294 
1 -1.89502 -1.72392 -7.08007 
1 0.0468061 -3.4765 -10.6594 
1 0.0306353 -3.59582 -7.11923 
1 0.0274648 -1.75507 -8.82772 
1 0.0438155 0.00602148 -10.6457 
1 3.54603 -3.48354 -10.6406 
1 1.7815 -1.88323 -10.6116 
1 1.74718 -3.48223 -8.86972 
2 3.53594 -1.77349 -8.83924 
1 3.50383 -3.5845 -7.17685 
1 1.76197 -1.83257 -6.94578 
2 1.67892 -0.0602008 -8.90967 
1 7.07712 -3.52875 -10.6377 
1 5.27203 -1.63758 -10.6576 
1 6.98834 -1.67292 -8.88236 
1 5.40469 -3.43167 -8.84303 
1 7.04413 -3.41733 -6.98444 
1 5.29484 -1.85709 -7.03844 
1 8.81646 -1.85931 -10.5091 
1 10.9332 -3.60955 -7.04045 
1 8.87273 -3.53879 -8.80982 
2 8.86124 -1.83665 -6.9827 
2 10.6179 -1.92104 -8.86045 
1 12.5367 -1.72483 -7.13495 
1 -5.33096 -12.3855 -3.54911 
1 -1.73151 -14.3393 -5.05577 
1 -3.69273 -12.5462 -5.35593 
1 -1.94344 -12.6625 -3.45638 
2 -0.000358653 -14.2648 -3.37907 
1 -0.0316948 -12.6249 -5.34849 
2 1.8592 -12.4858 -3.53956 
1 5.02745 -12.6906 -3.59005 
1 -10.6177 -8.96981 -5.10154 
1 -8.81922 -10.5379 -5.12335 
2 -8.8336 -8.90218 -3.21797 
1 -7.12027 -10.6868 -3.43769 
1 -5.25365 -10.5141 -5.16654 
1 -7.15246 -8.82271 -5.34743 
1 -5.32111 -8.7713 -3.58951 
2 -1.84243 -10.8172 -5.46587 
1 -3.55211 -10.7958 -3.59242 
1 -3.59623 -8.91673 -5.33124 
2 -1.79954 -8.80991 -3.61911 
1 3.38996 -12.4469 -5.42574 
1 0.022458 -8.94135 -5.40842 
2 -0.140744 -10.8235 -3.59113 
1 1.67117 -10.6138 -5.35259 
1 3.52631 -10.678 -3.51661 
1 3.40007 -8.95259 -5.34672 
1 1.7565 -8.97147 -3.59375 
2 7.13831 -10.8874 -3.6921 
1 5.15555 -10.8529 -5.39974 
1 7.11501 -8.91374 -5.29053 
2 5.31335 -8.91235 -3.59578 
1 9.01612 -10.6168 -5.2783 
2 8.90994 -8.80318 -3.46351 
1 10.6003 -8.6737 -5.56211 
1 -12.6364 -5.37227 -3.47567 
1 -10.7019 -7.14197 -3.46388 
1 -10.9167 -5.51342 -5.2444 
2 -8.92546 -7.12463 -5.27747 
1 -9.063 -5.37111 -3.56557 
1 -7.12235 -7.01251 -3.47076 
1 -7.15884 -5.36117 -5.21304 
1 -5.44108 -7.17765 -5.2933 
1 -5.40311 -5.47391 -3.58005 
1 -1.88996 -7.11367 -5.41383 
1 -3.50754 -7.01836 -3.66275 
1 -3.61886 -5.35059 -5.29364 
1 -1.78279 -5.39061 -3.5925 
1 -0.0523878 -7.05696 -3.62634 
2 -0.073149 -5.28674 -5.34662 
2 1.77063 -7.15893 -5.23626 
1 3.48728 -7.10706 -3.58955 
1 3.57415 -5.32268 -5.35518 
1 1.83508 -5.22125 -3.55212 
1 7.12931 -7.12122 -3.60996 
1 5.30338 -7.05672 -5.21334 
1 6.99689 -5.17269 -5.33192 
1 5.45805 -5.34389 -3.51267 
1 10.727 -7.01625 -3.75097 
1 10.8644 -5.20377 -5.33155 
2 8.86221 -7.10234 -5.52825 
2 8.81323 -5.34607 -3.51193 
1 12.5892 -5.18808 -3.42736 
1 -14.3209 -3.52598 -3.43338 
1 -12.734 -3.45765 -5.2701 
2 -12.5747 -1.69162 -3.41172 
1 -10.8448 -1.78006 -5.44414 
2 -10.8209 -3.60421 -3.60731 
1 -8.9775 -3.61582 -5.2639 
2 -9.06901 -1.66824 -3.47893 
2 -9.11313 0.0951579 -5.43403 
2 -7.13897 -1.88782 -5.36302 
1 -7.16256 -3.56716 -3.52706 
1 -5.3733 -3.51369 -5.30109 
1 -5.29962 -1.63471 -3.47968 
2 -7.18991 0.0469964 -3.64173 
1 -3.64794 -1.73915 -5.35627 
1 -1.8771 -3.50559 -5.47438 
1 -3.58391 -3.61146 -3.59214 
1 -1.81148 -1.79265 -3.71696 
1 0.0233158 -1.85807 -5.39448 
1 -0.121331 -0.0730923 -3.48785 
1 -3.51333 0.047621 -3.55028 
1 0.0687801 -3.48191 -3.58379 
1 1.8086 -3.66172 -5.34835 
1 3.56903 -1.78976 -5.40303 
1 3.57691 -3.64006 -3.58551 
2 1.80392 -1.74897 -3.65593 
1 3.543 -0.0368804 -3.5662 
1 1.74256 0.0253504 -5.45609 
1 7.08872 -1.67825 -5.23483 
1 7.06744 -3.37967 -3.61934 
1 5.19094 -3.56825 -5.20763 
1 5.26522 -1.77789 -3.54702 
1 5.25946 0.0389426 -5.39832 
1 10.6841 -1.65742 -5.31308 
1 10.6728 -3.50944 -3.40593 
1 8.88234 -3.54929 -5.31835 
1 8.94296 -1.7856 -3.56484 
1 12.2592 -1.65257 -3.41617 
2 12.6901 -3.21976 -5.1689 
2 14.158 -2.87134 -3.06055 
2 14.2072 -0.121821 -3.47759 
1 -5.22359 -12.4111 -0.0150044 
1 -1.97041 -14.4406 -1.65752 
1 -3.61691 -14.3773 0.271486 
1 -1.2296 -14.3785 1.37814 
1 -3.52378 -12.5576 -1.78778 
2 -0.245379 -12.5135 -1.61328 
1 0.404502 -14.718 -0.580948 
1 2.44813 -14.4102 -2.02731 
1 3.64522 -14.3211 0.146964 
2 1.52365 -14.462 1.52168 
1 5.22041 -14.2105 -1.64735 
1 5.26139 -12.4284 0.154583 
1 -10.6259 -10.5692 -0.0914539 
1 -10.7422 -9.02113 -1.87253 
1 -8.77235 -10.8617 -1.66125 
1 -8.76035 -8.92058 -0.173495 
2 -10.6281 -8.89409 1.73242 
2 -8.89492 -10.7542 1.71961 
2 -7.01121 -12.476 1.65812 
2 -6.96817 -12.5645 -1.68907 
1 -7.04866 -10.6303 -0.0591451 
2 -5.16924 -10.5934 -1.79704 
2 -5.38595 -10.6603 1.71321 
1 -6.92419 -8.92113 -1.73659 
1 -7.13199 -8.84515 1.60994 
1 -5.28766 -8.92256 -0.0769634 
1 -1.87942 -12.4487 -0.0196467 
1 -3.39688 -12.2806 1.7332 
1 -3.44067 -10.6016 0.0136566 
1 -1.91397 -10.574 -1.84138 
1 -1.75816 -10.6915 1.75511 
1 -3.48757 -8.66351 -1.75126 
1 -3.59479 -8.92782 1.77294 
1 -1.75493 -8.89334 -0.0507534 
1 0.079256 -8.95656 -1.78332 
1 -0.0714124 -10.5799 -0.0864536 
1 0.0306114 -9.02957 1.68217 
1 0.0179442 -12.3504 1.69531 
1 3.4806 -12.4387 1.71511 
2 1.77229 -12.5577 0.0151038 
1 3.57606 -12.3701 -1.71909 
1 3.58812 -10.6302 -0.01644 
1 1.68862 -10.7565 -1.82269 
1 1.73695 -10.6771 1.66822 
1 3.51125 -8.95846 -1.78464 
1 3.56812 -8.88602 1.80017 
1 1.8786 -8.92457 0.0366496 
1 7.02018 -12.3012 1.69522 
2 6.877 -12.4809 -1.79709 
1 6.82278 -10.6449 -0.0812022 
1 5.26054 -10.678 -1.81276 
1 5.29778 -10.7177 1.79833 
1 7.11696 -8.94461 -1.81794 
2 7.16436 -9.06485 1.84098 
1 5.27074 -8.86583 0.062189 
1 8.73294 -12.0895 -0.0361888 
1 8.7234 -10.8264 -2.03597 
1 10.7934 -9.13656 -1.89445 
1 10.6935 -8.93815 1.73688 
2 8.82867 -9.16881 -0.101238 
1 8.86941 -10.8634 2.12727 
1 -12.4489 -5.46752 0.0888186 
1 -12.5517 -7.06063 -1.80047 
2 -10.7011 -7.29814 -0.17335 
1 -10.6957 -5.23503 -1.78805 
1 -10.717 -5.60715 1.63264 
1 -8.84291 -7.06829 -1.8068 
1 -8.87144 -7.14403 1.68474 
1 -8.98327 -5.35624 -0.124829 
1 -7.0321 -7.12605 -0.101806 
1 -7.17823 -5.28733 -1.77282 
1 -5.20415 -7.04599 -1.77505 
2 -7.18572 -5.50918 1.7447 
1 -5.27472 -7.23798 1.79313 
1 -5.2113 -5.24925 -0.0690845 
1 -3.50723 -7.18869 0.0190971 
1 -1.64663 -7.03875 -1.78056 
1 -1.70918 -7.15052 1.70303 
1 -3.49102 -5.43615 -1.86225 
1 -3.52249 -5.40654 1.6597 
2 -1.66307 -5.45441 -0.0894743 
1 0.0337401 -5.3043 -1.92247 
1 -0.00996916 -5.23171 1.69985 
1 0.0190533 -7.27293 0.0205539 
1 3.58455 -7.12481 0.0887691 
2 1.79314 -7.14741 -1.83331 
1 1.74074 -7.14586 1.8884 
2 3.69825 -5.31354 -1.81013 
1 3.57716 -5.28821 1.74863 
1 1.74313 -5.38223 0.0516044 
1 7.13117 -7.23333 -0.0756364 
1 5.29815 -7.1484 -1.80747 
1 7.17274 -5.38579 -1.70838 
1 5.27827 -7.09516 1.9 
2 7.18471 -5.38115 1.64747 
1 5.30932 -5.42937 0.00980575 
1 10.5877 -7.19101 -0.0419569 
1 10.64 -5.41687 1.51067 
1 10.5607 -5.48495 -1.83713 
1 8.89526 -7.26448 -1.71244 
1 8.83727 -7.17765 1.68782 
1 8.94422 -5.38438 -0.068502 
1 12.3028 -7.32709 -1.79665 
2 12.4546 -5.40334 -0.240696 
1 12.4012 -7.22877 1.33989 
1 -14.1549 -3.77634 -0.0451563 
2 -14.2315 -1.73348 -1.52498 
1 -14.0309 -1.88519 1.7959 
1 -12.579 -3.70875 -1.74103 
2 -12.4024 -0.054892 1.70575 
1 -14.4424 -0.0900777 0.304447 
1 -12.3926 -1.80197 0.058728 
1 -12.4494 -3.58555 1.79839 
1 -10.8262 -3.59469 -0.0462624 
1 -10.808 -1.80514 -1.71623 
1 -10.8258 -1.87793 1.98628 
1 -8.94696 -3.47773 -1.6751 
2 -9.13461 -3.66632 1.81212 
1 -9.06531 -1.86975 -0.0567825 
1 -10.6018 0.0997234 0.0111058 
1 -7.23609 -3.63636 0.00358186 
1 -7.18933 -1.79903 -1.81708 
1 -7.1643 -1.83737 1.64284 
1 -5.37241 -3.51082 -1.75856 
2 -5.31113 -3.57033 1.68833 
2 -5.34512 -1.70455 -0.106171 
1 -7.18811 0.0333357 -0.111781 
1 -3.44551 -3.49327 0.0380097 
1 -3.60966 -1.73116 -1.82836 
2 -1.78419 -3.59066 -1.88925 
2 -3.49692 -1.6862 1.79848 
1 -1.84078 -3.55895 1.8002 
1 -1.76918 -1.795 -0.0537944 
1 -0.123114 -1.74253 -1.75126 
1 0.0742438 -3.55848 0.0542008 
1 -0.122955 -1.84364 1.78795 
1 0.0351058 0.0321297 0.0667672 
1 -1.65085 0.018407 1.90239 
2 3.53525 -3.45771 0.101697 
2 1.77285 -3.60598 -1.7531 
1 3.67603 -1.84991 -1.85267 
1 1.76919 -3.52705 1.78732 
1 3.64997 -1.71498 1.90929 
1 1.76176 -1.76204 -0.10281 
2 1.88068 -0.0975221 1.91497 
2 3.59942 -0.0493634 -0.0637086 
1 7.12868 -3.56892 -0.0968788 
1 7.14783 -1.72958 -1.85077 
1 7.1582 -1.78242 1.7017 
1 5.48063 -3.50989 -1.82742 
1 5.44897 -3.52818 1.82495 
2 5.42279 -1.81687 -0.00713395 
1 5.4115 -0.0018267 1.80664 
1 7.16831 0.0755866 -0.0384904 
1 10.6006 -3.54075 -0.0855269 
1 10.6191 -1.84597 1.67607 
1 10.6099 -1.66787 -1.69008 
1 8.85304 -3.63574 -1.75035 
1 8.9577 -3.54922 1.83297 
2 8.91787 -1.75178 0.0171117 
1 12.2801 -3.38555 -1.65775 
1 12.4799 -1.66054 0.107836 
2 9.02948 0.158786 1.74896 
2 12.4997 -3.74123 1.51746 
2 14.2601 -3.59548 -0.540839 
1 14.5499 -1.31276 -1.25639 
1 14.5445 -1.95772 1.5444 
1 12.4139 -0.00839657 1.73525 
2 -5.066 -12.7976 3.39891 
2 -3.14285 -14.2778 3.04032 
1 0.120953 -14.1717 3.51402 
1 3.04742 -14.3313 3.45242 
1 -10.635 -10.7911 3.46735 
1 -10.7392 -8.97798 5.20102 
2 -8.76319 -8.86766 3.53005 
2 -8.81756 -10.6607 5.34309 
1 -7.13129 -10.7886 3.62138 
1 -5.22879 -10.9218 5.34735 
1 -7.16803 -8.94964 5.43254 
2 -5.43351 -8.97218 3.64125 
2 -3.41219 -12.6606 5.19487 
1 -1.64432 -12.3588 3.52314 
1 -1.69584 -10.6139 5.24745 
1 -3.53426 -10.8433 3.51369 
2 -3.51857 -8.95319 5.23795 
1 -1.79156 -8.9591 3.46546 
2 0.120513 -12.4356 5.28142 
1 0.00506943 -10.5469 3.49155 
1 -0.0485673 -8.8797 5.2639 
1 3.30781 -12.6594 5.30264 
1 1.67009 -12.3488 3.31306 
1 1.70253 -10.6407 5.4127 
2 3.51471 -10.6949 3.64813 
1 3.42218 -8.95829 5.45603 
1 1.77007 -8.95437 3.485 
1 5.04432 -12.702 3.51715 
1 6.94246 -10.9543 3.75562 
1 5.25618 -11.0399 5.53696 
2 6.99742 -8.79647 5.49943 
2 5.43053 -8.95814 3.58558 
1 8.88504 -10.5839 5.03771 
2 8.9121 -8.70054 3.63318 
1 -12.3089 -5.26404 3.37508 
1 -10.5631 -7.12082 3.54168 
1 -10.7095 -5.3783 5.52262 
1 -8.82979 -7.20941 5.3719 
1 -9.01605 -5.29635 3.65925 
1 -7.13917 -7.17623 3.55748 
1 -7.11525 -5.38829 5.31583 
1 -5.46598 -7.1368 5.50137 
2 -5.30499 -5.60321 3.5961 
1 -1.71743 -7.05838 5.32532 
1 -3.48682 -7.1517 3.44591 
1 -3.64523 -5.43498 5.35623 
2 -1.76385 -5.35796 3.52043 
2 0.122536 -5.23121 5.23541 
1 0.0718082 -7.21614 3.52463 
1 1.81606 -7.06374 5.21063 
1 3.50103 -7.10937 3.45886 
1 3.47175 -5.3715 5.23094 
1 1.71645 -5.26143 3.42914 
1 7.12108 -6.98831 3.53315 
1 5.20906 -7.09647 5.27362 
2 7.18342 -5.42649 5.39483 
2 5.28254 -5.29188 3.54846 
2 10.8541 -8.35898 5.2384 
1 10.8559 -7.15625 3.19705 
1 10.8803 -5.62557 5.34003 
1 8.91563 -7.03728 5.44144 
1 9.15313 -5.52068 3.47535 
2 12.6783 -5.51625 3.32134 
1 -14.1208 0.0513083 3.50304 
1 -13.9933 -3.51243 3.61636 
1 -12.4624 -3.50183 5.60089 
1 -8.83445 0.0574764 5.34365 
1 -12.5673 -0.210951 5.40625 
1 -12.4327 -1.74244 3.65194 
1 -10.7234 -1.80665 5.49822 
1 -10.7209 -3.62817 3.90699 
1 -8.92497 -3.51479 5.61317 
2 -8.8762 -1.85151 3.74659 
1 -10.7653 0.0122109 3.70414 
1 -7.22549 -1.82981 5.64984 
2 -7.15667 -3.48727 3.63034 
1 -5.44573 -3.62694 5.39684 
1 -5.43945 -1.81363 3.59386 
2 -3.6634 -1.81015 5.491 
2 -1.95888 -3.61159 5.398 
1 -3.59811 -3.66816 3.53112 
1 -1.79228 -1.87426 3.60325 
1 -0.0686184 -3.45938 3.68652 
1 -0.0146853 -1.7657 5.38147 
1 1.96508 -3.47319 5.20742 
1 3.64996 -1.75479 5.31797 
1 3.62886 -3.43252 3.57926 
1 1.85702 -1.79195 3.53258 
1 1.87969 -0.168898 5.3059 
1 3.81864 -0.0437823 3.67447 
1 5.55706 -0.0143056 5.4762 
2 7.11109 0.0815544 3.58797 
1 7.23772 -1.88533 5.47801 
1 7.32258 -3.62592 3.53861 
1 5.39249 -3.65642 5.32571 
1 5.49087 -1.86746 3.60434 
2 10.7959 0.06144 3.57277 
2 10.9191 -1.97051 5.18705 
1 10.7476 -3.79961 3.50359 
2 9.16001 -3.78938 5.42446 
1 8.91766 -1.72849 3.52727 
2 14.2738 -0.0441601 3.24495 
2 12.5857 -1.88891 3.23944 
1 12.6751 -3.83664 5.14578 
1 14.4302 -3.62471 3.31585 
1 14.2661 -1.97102 5.13548 
1 12.9156 0.13367 5.26354 
1 -8.88876 -8.97852 7.16529 
1 -5.07705 -9.22481 10.6295 
1 -5.03245 -10.8091 8.83433 
1 -7.00406 -10.8054 7.06107 
2 -6.86829 -9.02023 8.89938 
1 -5.19275 -9.00803 7.04795 
1 -1.62163 -12.4698 6.99391 
2 -2.03072 -8.79192 10.6318 
1 -1.78502 -10.7245 9.00579 
1 -3.48792 -10.8257 7.03363 
1 -3.53913 -8.77143 8.75661 
1 -1.81544 -8.84474 7.09016 
1 -0.161266 -8.80257 8.87597 
1 -0.0801963 -10.6099 7.05687 
1 1.62998 -12.4615 7.20118 
1 1.64153 -10.6196 8.76399 
1 3.40736 -10.7201 7.12031 
1 3.49754 -8.95666 8.88011 
1 1.69717 -8.76453 7.11857 
1 1.78287 -8.88823 10.5702 
1 7.16306 -10.5238 7.07241 
1 5.22137 -9.02322 10.4707 
1 5.2486 -10.6365 8.63274 
1 7.04081 -8.77079 8.90643 
1 5.20673 -8.78943 7.10394 
1 9.08677 -8.95885 6.93051 
1 -10.3785 -5.57566 9.04569 
2 -10.538 -7.23557 7.08955 
1 -8.70247 -7.334 9.23349 
1 -8.77046 -5.52347 7.14219 
1 -8.54779 -5.46298 10.7436 
1 -6.64629 -7.27015 10.723 
1 -7.05946 -5.62474 8.97951 
1 -5.29793 -7.11093 8.66083 
1 -7.10685 -7.24811 7.15529 
1 -5.40714 -5.28921 7.13646 
1 -5.38536 -5.2163 10.7186 
2 -3.88145 -7.10172 10.8446 
1 -1.92712 -5.26329 10.7074 
1 -1.8505 -7.14508 8.99387 
2 -3.60539 -5.46592 8.90852 
1 -3.53834 -7.0964 7.03145 
1 -1.86095 -5.44552 7.17862 
2 -0.182055 -5.4294 9.05848 
1 -0.0152224 -7.15057 10.703 
1 -0.107177 -7.04106 7.12898 
1 3.57052 -6.95765 10.6157 
1 1.8434 -5.25325 10.5827 
1 1.75942 -7.1848 9.03661 
1 3.5193 -5.22267 8.91523 
1 3.43438 -7.14014 7.22653 
2 1.76045 -5.30995 7.19684 
1 6.92675 -7.06226 10.7807 
1 5.3262 -5.31387 10.6641 
1 5.28954 -7.19195 8.92123 
1 6.95413 -5.38651 8.95332 
1 7.23478 -7.17203 7.29192 
2 5.32657 -5.48172 7.1771 
1 8.68902 -5.2411 10.5002 
1 10.7016 -5.42002 9.11097 
1 10.5797 -7.10919 7.4003 
1 8.88562 -7.13251 9.0562 
1 8.87861 -5.43538 7.25658 
2 -12.2456 -1.7683 7.50943 
1 -9.06752 -1.68722 10.6109 
1 -10.9581 -2.78096 9.46339 
2 -10.6951 -3.71137 7.32231 
1 -8.81176 -3.66165 9.00451 
2 -9.10022 -1.69584 7.464 
1 -11.0224 -0.516532 9.43666 
1 -7.29681 -3.44027 10.7525 
1 -5.48015 -1.64071 10.7492 
1 -7.23269 -1.53571 9.03537 
2 -5.50635 -3.55506 8.97605 
1 -7.20152 -3.64664 7.23239 
1 -5.48962 -1.6504 7.17221 
1 -3.67741 -3.50262 10.7344 
1 -1.76659 -1.68606 10.731 
1 -3.65333 -1.77959 9.113 
2 -1.91765 -3.53835 8.93919 
1 -3.628 -3.51245 7.33386 
1 -1.88904 -1.73087 7.21832 
1 -0.116722 -1.62559 8.88775 
1 -0.0926768 -3.41859 10.5878 
2 -0.0515794 -3.50435 7.2348 
1 -0.0153057 -0.0276157 10.652 
1 3.66907 -0.0441503 10.7903 
1 1.75701 -1.68263 7.23807 
2 3.5569 -3.45253 7.14228 
1 1.78713 -1.77169 10.6995 
1 1.76548 -3.45887 8.8918 
1 3.61138 -1.76648 9.05647 
1 3.6128 -3.46936 10.6533 
1 3.57572 -0.139758 7.10528 
1 1.75566 -0.139576 9.05465 
1 7.10109 -3.52054 10.6009 
1 5.45394 -1.78854 7.05225 
1 7.19999 -3.63995 7.17748 
1 5.37665 -1.67652 10.6214 
1 5.36752 -3.49739 8.90678 
1 7.20971 -1.76757 8.82782 
1 5.42762 -0.00927765 8.78517 
1 7.25309 0.0200685 7.20429 
2 9.18013 -0.155952 8.94888 
2 10.7879 0.0665235 6.86759 
1 8.87507 -2.08071 10.7903 
1 9.07688 -1.91738 7.03521 
1 8.96814 -3.68223 8.80643 
1 11.0177 -3.94387 7.3396 
2 10.7102 -2.01442 9.03979 
1 12.3341 -0.023288 9.01124 
2 12.5399 -1.7262 7.05702 
1 0.0591811 -8.85636 12.1604 
1 -3.74601 -5.33265 12.5247 
1 0.00909562 -6.93475 14.012 
1 -0.112627 -5.27275 12.2061 
1 -1.82127 -7.11319 12.3369 
1 3.61816 -5.16462 12.4896 
1 1.76343 -5.16194 14.1497 
2 1.74285 -6.99285 12.3245 
1 -5.50256 -3.37703 12.4361 
1 -7.28035 -1.82387 12.4409 
1 -0.0514318 -1.768 12.4552 
1 -2.0456 -3.63083 12.4829 
1 -3.61928 -1.73846 12.3978 
1 -1.81902 -1.74834 14.1899 
2 -0.270429 -3.67121 13.985 
1 3.53764 -1.85624 12.575 
1 1.75789 -3.60167 12.2898 
1 1.58851 -1.90887 14.1784 
2 5.34305 -3.37414 12.2615 
1 7.13514 -1.84679 12.4802 
1 -7.24263 1.68473 -12.3433 
1 -5.53517 3.49254 -12.6084 
1 -5.44659 0.054915 -12.6308 
2 -1.79865 1.7164 -14.2951 
2 -3.68578 1.75788 -12.6176 
1 -1.89719 3.62201 -12.5163 
2 -0.0182957 1.82349 -12.5265 
2 -1.81918 -0.088208 -12.4245 
2 -0.10698 -0.116899 -14.506 
1 -3.65723 -0.0996115 -14.4831 
1 -0.265058 3.76605 -14.4111 
1 3.29085 3.56837 -14.2256 
1 3.38939 1.84591 -12.4851 
2 1.68904 3.65375 -12.4397 
1 1.76437 1.84928 -14.5667 
1 4.89711 1.84147 -14.4421 
1 7.13998 1.66732 -12.8178 
1 5.26445 3.42654 -12.5723 
2 5.24611 0.100837 -12.4292 
1 -1.74424 7.11478 -12.4671 
1 -3.62153 5.34972 -12.4629 
1 -0.162399 5.36713 -12.438 
1 1.60982 6.94923 -12.3454 
1 3.54653 5.40969 -12.5575 
1 -12.4366 1.84031 -6.96373 
1 -10.8843 2.3442 -8.9189 
1 -9.02339 1.74716 -10.6307 
2 -8.78771 3.59831 -8.84061 
2 -9.12694 2.00077 -7.12744 
1 -10.8165 3.94081 -6.9972 
1 -7.341 3.496 -10.8753 
2 -5.38517 1.72506 -10.6922 
2 -7.20671 1.65593 -8.7898 
1 -5.66705 3.64014 -8.95926 
1 -7.16173 3.69338 -7.02957 
2 -5.40779 1.83002 -7.00319 
1 -5.4314 -0.03647 -8.77348 
1 -3.7296 3.57289 -10.8689 
1 -1.91698 1.70416 -10.7456 
1 -3.69737 1.74378 -8.97113 
2 -1.98355 3.43513 -9.07952 
2 -3.69791 3.61581 -6.99925 
1 -1.89896 1.68273 -7.10117 
1 -0.277347 3.61507 -7.14069 
1 -0.133103 1.77523 -9.02448 
1 -0.14444 3.62469 -10.8169 
1 -0.166387 0.0250977 -7.10836 
1 -1.86564 -0.0638469 -8.9896 
1 -3.64975 -0.0370004 -7.17424 
1 -3.71159 0.00445099 -10.7255 
1 3.41196 3.55701 -10.7258 
1 1.67599 1.77567 -10.6679 
1 3.55372 1.79014 -8.94188 
2 1.68809 3.46549 -8.93436 
1 3.51639 3.54582 -7.04504 
2 1.50656 1.73874 -7.12353 
1 3.43094 0.0949094 -10.8686 
1 3.57232 0.0758709 -7.07504 
2 6.9507 3.5239 -10.763 
1 5.30063 1.86605 -10.7462 
1 7.17413 1.87999 -8.91195 
1 5.26529 3.53888 -8.90074 
1 7.0443 3.66239 -7.02668 
1 5.40558 1.89228 -7.09549 
2 7.28717 0.140262 -10.6958 
2 7.16981 0.142103 -7.12454 
2 5.31882 0.117971 -8.9651 
1 8.93861 1.99879 -10.7684 
2 10.4472 2.00478 -8.93084 
1 8.7564 3.63798 -8.8077 
1 8.8881 1.95945 -7.02712 
1 10.6854 3.77934 -7.01596 
2 12.3847 1.96014 -7.26541 
1 10.4996 -0.0275087 -10.5935 
2 10.5745 0.116479 -7.06955 
1 8.82098 0.0566383 -8.79634 
1 -10.6552 5.21555 -8.94461 
1 -10.7782 6.93352 -7.21001 
1 -9.04569 7.21207 -8.80272 
1 -8.85141 5.45343 -7.16365 
1 -8.86396 5.40286 -10.5476 
2 -5.65227 5.3293 -10.8538 
1 -7.23412 7.33571 -10.5657 
1 -7.09222 5.54364 -8.92053 
1 -5.34283 7.31489 -8.84762 
2 -7.09173 7.32124 -7.13403 
1 -5.45957 5.46035 -7.02171 
2 -3.72547 7.22509 -10.7941 
1 -1.98659 5.38612 -10.6465 
1 -1.87471 7.21301 -8.91569 
2 -3.78345 5.36236 -8.95755 
1 -3.58447 7.13917 -7.15638 
1 -1.95677 5.46427 -7.1155 
2 -0.100519 5.43843 -8.93281 
1 -0.182396 7.20145 -10.6354 
1 -0.147357 7.16087 -7.12762 
1 3.47295 6.96934 -10.669 
1 1.67887 5.35821 -10.6416 
2 1.804 7.14402 -8.94224 
1 3.44661 5.22852 -8.89046 
1 3.42985 7.0706 -7.15207 
1 1.62327 5.43834 -7.13015 
1 6.78691 6.93362 -10.7084 
1 5.12994 5.22941 -10.7723 
1 6.98157 5.34671 -8.94818 
1 5.18828 7.02618 -8.95759 
1 6.96058 6.95946 -7.15457 
1 5.14658 5.19927 -7.1566 
1 8.82994 5.16398 -10.7224 
1 10.6004 5.28413 -8.94176 
1 8.70874 7.02896 -9.16281 
1 8.7471 5.38845 -7.32011 
2 10.5656 6.83182 -7.20674 
1 -9.12449 8.94378 -7.0898 
1 -5.24526 8.97173 -10.6293 
1 -5.32235 10.8029 -8.92987 
1 -7.00525 9.02917 -8.87392 
1 -5.33108 9.04311 -7.06683 
1 -7.06774 10.6877 -6.93613 
2 -1.91631 9.05227 -10.7139 
2 -2.04161 10.7378 -8.81743 
1 -3.65953 10.7183 -7.07983 
1 -3.51636 8.85545 -8.87564 
1 -1.72382 8.93945 -7.05819 
1 0.0254999 12.1321 -9.16886 
1 -1.7303 12.5472 -7.06901 
1 -0.129491 10.7189 -7.12003 
1 -0.182275 9.00322 -8.91171 
1 1.67507 8.87867 -10.6426 
1 1.71762 10.6304 -9.06239 
1 3.51102 10.7325 -7.16857 
1 3.5239 8.81678 -8.82785 
1 1.61363 9.01914 -7.1264 
2 1.67809 12.397 -7.17588 
1 5.00811 8.74024 -10.7415 
1 5.05061 10.4852 -8.98106 
1 6.97843 10.4633 -7.22067 
1 6.84226 8.77566 -8.99129 
1 5.1828 8.84334 -7.17471 
1 8.69149 8.73601 -7.23741 
2 -14.155 3.49634 -3.20276 
1 -14.4035 0.0757039 -3.38119 
1 -12.6505 0.145111 -5.2498 
2 -12.5609 3.60604 -5.10176 
1 -12.5544 1.70395 -3.3311 
2 -10.869 2.0004 -5.14536 
1 -10.8378 3.80188 -3.31517 
1 -8.95414 3.78373 -5.29845 
2 -8.96725 2.06638 -3.36551 
1 -10.8045 0.0797497 -3.45669 
1 -7.20617 1.86845 -5.43124 
2 -7.16297 3.69383 -3.44585 
1 -5.4648 3.5914 -5.14593 
1 -5.25318 1.83264 -3.59344 
1 -5.33321 -0.0518378 -5.27736 
1 -3.57431 1.68369 -5.28263 
1 -1.86179 3.60547 -5.36949 
1 -3.63229 3.6107 -3.55716 
1 -1.73898 1.88438 -3.58753 
1 -0.193957 1.70623 -5.3607 
1 -0.0633606 3.74418 -3.58677 
1 -1.85754 -0.133205 -5.36865 
1 3.66788 1.85807 -5.33945 
2 1.63599 3.61574 -5.42215 
1 3.51614 3.69945 -3.50005 
2 1.63323 1.7029 -3.61823 
1 7.12056 1.85217 -5.24027 
1 7.10922 3.54299 -3.49305 
1 5.3145 3.65812 -5.23162 
1 5.30453 1.85265 -3.49856 
1 6.98132 0.0560679 -3.53458 
1 10.6196 0.205356 -3.57827 
1 10.6635 1.88264 -5.25741 
1 10.7002 3.65999 -3.52135 
2 8.92269 3.7666 -5.38745 
1 8.79055 1.87141 -3.45086 
1 12.4569 1.96232 -3.42309 
1 12.5207 3.34851 -5.17237 
1 8.86031 0.116126 -5.188 
1 14.2594 3.61663 -3.36306 
2 12.5509 0.0840012 -5.3416 
1 -12.7518 5.48081 -3.33865 
1 -10.7907 7.34171 -3.40831 
1 -10.8808 5.50574 -5.22576 
2 -8.9591 7.24361 -5.35688 
1 -9.00314 5.4115 -3.5265 
1 -7.23568 7.15269 -3.58616 
1 -7.15147 5.3749 -5.27953 
1 -5.35668 7.17846 -5.38567 
1 -5.29667 5.36034 -3.54674 
1 -1.91768 7.16342 -5.31798 
1 -3.54469 7.16607 -3.42453 
1 -3.60108 5.44261 -5.305 
1 -1.85328 5.44852 -3.64681 
1 -0.158404 5.43208 -5.42342 
2 -0.132443 7.10717 -3.68406 
1 1.69058 7.16369 -5.43928 
2 3.46197 6.96596 -3.46049 
1 3.37411 5.34802 -5.3071 
1 1.66557 5.31812 -3.58704 
1 7.19199 6.92397 -3.66607 
1 7.00772 5.32915 -5.31608 
2 5.18123 7.08582 -5.41484 
1 5.32462 5.18752 -3.45262 
1 10.6192 7.12984 -3.70131 
1 10.949 5.48248 -5.27719 
1 8.80419 6.89352 -5.36849 
1 9.01451 5.23677 -3.53484 
2 12.4923 5.28376 -3.47361 
1 -10.7814 8.88518 -5.21775 
1 -8.90281 10.6569 -5.17367 
1 -8.73598 9.02244 -3.52258 
1 -10.5516 10.6209 -3.48646 
1 -7.01502 10.7054 -3.50529 
1 -5.39538 10.8742 -5.30597 
1 -7.04753 8.8982 -5.18951 
1 -5.45468 8.89143 -3.47906 
1 -5.3655 12.5229 -3.46295 
1 -1.82169 10.7464 -5.39582 
1 -3.55401 10.7398 -3.51413 
2 -3.61805 9.04138 -5.31365 
1 -1.77986 8.98942 -3.53923 
1 -1.7299 12.5229 -3.54985 
1 -0.0811612 8.96071 -5.3561 
1 -0.0732807 10.7072 -3.60223 
1 -0.123166 12.4734 -5.32545 
2 1.79666 10.7298 -5.28061 
1 3.57127 10.5676 -3.55941 
1 3.39469 8.98632 -5.40755 
1 1.7231 8.91485 -3.56688 
1 1.74803 12.5025 -3.61976 
1 3.60151 12.4947 -5.33099 
1 7.10802 10.7492 -3.63124 
2 5.40462 10.6921 -5.33525 
1 7.07469 8.71644 -5.29402 
2 5.30467 8.78152 -3.55939 
1 10.5363 8.65414 -5.57642 
1 8.75219 10.484 -5.40047 
1 8.89879 8.80656 -3.69972 
1 -3.60438 12.5337 -5.47519 
1 -3.31046 14.0906 -3.53169 
1 -0.0678678 14.3106 -3.86924 
2 1.74205 14.1075 -5.3545 
1 3.60098 14.0964 -3.67496 
1 5.53438 12.4913 -3.55658 
1 -14.2759 3.56457 0.0517109 
1 -14.3644 1.73462 -1.51901 
1 -14.1478 1.84577 1.69393 
1 -12.5529 3.73015 -1.69599 
1 -12.4755 1.83458 -0.0532204 
2 -12.5067 3.75515 1.76708 
1 -12.5353 0.0232881 -1.61169 
2 -10.7286 3.71259 -0.0243071 
1 -10.7255 1.77659 -1.7297 
1 -10.7178 1.85426 1.69724 
1 -8.94962 3.73552 -1.56094 
1 -8.99112 3.72945 1.76898 
1 -8.93206 1.86392 0.0981644 
2 -8.98347 -0.0384108 1.7437 
1 -9.04189 0.0389171 -1.61805 
2 -5.44061 -0.0424795 1.82008 
1 -7.2545 3.66451 0.0229729 
1 -7.14255 1.88756 -1.68842 
1 -7.132 1.77124 1.80246 
1 -5.38043 3.59764 -1.71165 
1 -5.44391 3.47903 1.82839 
1 -5.39832 1.7125 -0.00880423 
1 -5.33851 0.152313 -1.78804 
1 -3.58331 0.184079 0.0468717 
2 -3.66985 3.55349 0.164672 
1 -3.697 1.91562 -1.72691 
2 -1.86934 3.61105 -1.78203 
1 -3.59456 1.6876 1.92006 
1 -1.86166 3.51279 1.96071 
1 -1.77792 1.82299 0.183013 
1 0.00762881 1.82527 1.86466 
1 -0.198754 1.76114 -1.83709 
1 -0.117446 3.56106 0.0338721 
1 -1.89545 0.0921428 -1.69033 
2 3.42018 3.61672 0.102999 
1 3.48435 1.78726 -1.90787 
2 1.70256 3.55025 -1.779 
1 3.67535 1.80718 2.01463 
1 1.80603 3.62003 1.89883 
2 1.82625 1.68959 0.0663312 
1 1.77087 0.0118703 -1.80004 
1 7.19516 3.55209 0.117252 
1 7.08257 1.92824 -1.7529 
1 7.12319 1.79252 1.97878 
1 5.25783 3.57479 -1.66813 
1 5.46394 3.69724 1.85979 
2 5.36914 1.91972 0.121578 
1 5.38825 0.128897 -1.66481 
1 10.6064 3.66526 0.0599845 
1 10.7155 1.91701 1.83217 
2 10.6768 1.9024 -1.65241 
1 8.8809 3.6313 -1.65169 
1 8.83193 3.39955 1.82242 
1 8.93228 1.84836 -0.0174868 
1 10.7036 0.102288 -0.00181867 
1 8.78439 0.0267676 -1.82517 
2 12.4251 -0.0126281 -1.65445 
1 12.4452 3.65706 -1.61624 
1 12.5334 1.65735 0.213677 
1 12.3668 3.69498 1.74625 
1 14.2279 3.70467 0.118951 
2 14.2104 1.73441 -1.6396 
1 14.3198 2.19756 1.8684 
1 14.4662 0.252194 0.458964 
1 -12.467 5.49005 -0.0826068 
1 -12.4659 7.16573 -1.62486 
1 -12.3257 7.20336 1.82966 
1 -10.6979 7.27925 0.0534933 
1 -10.5801 5.61017 -1.67597 
1 -10.6546 5.42552 1.82802 
1 -8.71875 7.16444 -1.79506 
2 -9.08099 7.26182 1.88136 
1 -8.77435 5.53225 0.0336909 
1 -7.14733 7.25924 0.157049 
1 -7.05924 5.3415 -1.73456 
2 -5.31615 7.22297 -1.71051 
1 -7.11228 5.46228 1.88285 
1 -5.22224 7.30067 1.75969 
1 -5.3999 5.47571 0.0787675 
1 -3.51996 7.11742 0.0483957 
1 -1.9445 7.09546 -1.63869 
1 -1.78276 7.12197 1.88339 
1 -3.55045 5.38361 -1.76289 
1 -3.69198 5.37789 1.91802 
2 -1.79029 5.34766 0.229351 
1 -0.00637833 5.31746 1.89523 
1 -0.0562106 5.37278 -1.77016 
1 -0.0416415 7.15865 0.0458107 
1 3.51665 7.16383 0.0650237 
1 1.67324 7.07898 -1.79221 
2 1.70571 7.07621 1.81443 
1 3.52899 5.36889 -1.58774 
2 3.70155 5.40871 1.87338 
1 1.61602 5.33023 -0.005692 
1 7.21189 7.14167 -0.00358136 
1 7.13089 5.21288 -1.72933 
2 5.4127 7.08525 -1.76652 
1 7.08615 5.40935 1.73189 
1 5.40403 7.1762 1.7644 
1 5.32246 5.30018 -0.052477 
1 10.4471 7.09655 -0.170334 
1 10.6339 5.42209 1.82919 
1 10.5985 5.44644 -1.80351 
1 8.733 7.06878 -1.86464 
2 9.13149 7.37148 1.77595 
1 8.91372 5.38912 0.0723673 
2 11.8923 7.48914 1.7822 
1 12.2885 7.24502 -1.86191 
1 12.3805 5.42947 -0.120402 
2 -8.92116 10.7263 -1.66006 
1 -9.00247 10.8364 1.6129 
2 -10.6637 8.90678 -1.63132 
1 -10.7765 9.17089 1.47241 
1 -8.7906 9.02273 -0.037418 
1 -7.13117 10.8257 0.0093031 
1 -5.29607 10.8025 1.75127 
1 -5.39252 10.8315 -1.75776 
1 -7.16201 9.028 -1.71928 
1 -7.07748 9.09188 1.69352 
1 -5.35585 9.04698 0.0673076 
1 -7.28383 12.6264 1.66184 
1 -3.69427 10.871 0.0134891 
2 -1.71789 10.7273 1.76074 
1 -1.63856 10.7359 -1.65428 
1 -3.71125 9.09827 -1.63123 
2 -3.58633 8.97553 1.88319 
1 -1.80537 8.84688 0.00703906 
1 -3.52791 12.4693 -1.77357 
1 -1.66143 12.5859 -0.0709122 
1 -0.0914745 8.99079 1.85573 
2 -0.0208427 8.87945 -1.77611 
1 0.0984362 10.6831 0.0181711 
1 3.58747 10.6121 0.0371843 
1 1.7735 10.7876 1.74466 
1 1.7414 10.8084 -1.87733 
1 3.38491 8.85487 -1.78564 
1 3.54313 8.86686 1.75167 
1 1.73472 8.83947 0.0335847 
2 3.55491 12.4978 -1.88192 
2 1.80694 12.5785 0.0261545 
1 7.13213 10.6394 0.0929341 
1 5.30225 10.5675 1.76169 
2 5.37556 10.615 -1.78638 
1 7.21726 8.91499 -1.90171 
1 7.11046 8.96648 1.93769 
2 5.38485 8.91192 0.0125469 
2 6.95338 12.2964 1.6978 
1 5.24857 12.7184 0.0853861 
1 10.4461 8.81391 -1.80977 