ITEM: TIMESTEP
1320000
ITEM: NUMBER OF ATOMS
1289
ITEM: BOX BOUNDS pp pp pp
-100 100
-100 100
-100 100
ITEM: ATOMS type x y z 
1 -1.78156 -6.94622 -12.6103 
1 -3.60127 -5.14441 -12.5318 
1 -0.0407443 -5.28401 -12.5962 
1 1.61277 -6.92725 -12.3841 
1 3.43423 -5.29444 -12.3912 
1 -7.15734 -1.75048 -12.4471 
2 -5.44618 -3.47351 -12.5869 
2 -1.85638 -1.85297 -14.237 
2 -3.84693 -1.6678 -12.5238 
1 -1.90018 -3.55834 -12.561 
1 0.0819444 -1.74253 -12.6216 
2 -1.73303 0.122215 -12.508 
2 -0.114216 0.183369 -14.5799 
1 -0.0398013 -3.5306 -14.16 
2 3.47724 -3.57137 -14.1263 
1 1.78232 -3.54921 -12.4194 
1 3.36824 -1.84534 -12.3412 
1 1.63946 -1.80228 -14.4536 
1 5.20826 -1.792 -14.2835 
2 7.14033 -1.85127 -12.4516 
2 5.31646 -3.64002 -12.4972 
2 5.30027 -0.0432627 -12.5111 
1 -1.7911 -12.612 -6.99523 
1 -9.1377 -8.91513 -7.13007 
2 -5.40702 -10.6266 -8.59258 
1 -5.32553 -9.02732 -10.5213 
1 -7.1606 -9.01424 -8.89029 
1 -5.38681 -8.92632 -6.9937 
1 -7.19632 -10.8155 -6.91284 
1 -2.13519 -10.7528 -8.79518 
1 -2.05767 -9.13404 -10.6224 
1 -3.60658 -10.8034 -6.94045 
2 -3.64352 -8.84198 -8.72579 
1 -1.86674 -8.95696 -7.00686 
1 -0.096284 -8.94274 -8.96565 
2 -0.110872 -10.7212 -7.17957 
1 -0.279374 -10.8977 -10.2606 
1 1.79837 -12.435 -7.08459 
1 1.64237 -8.94844 -10.7078 
2 1.72628 -10.6929 -8.89752 
1 3.63089 -10.7359 -7.05394 
2 3.49691 -8.85315 -8.94842 
1 1.77983 -9.06243 -7.19443 
1 5.31007 -10.6335 -8.86528 
1 7.05302 -8.74837 -9.00822 
1 5.2289 -8.79679 -7.2105 
1 7.08438 -10.4876 -7.08406 
1 5.21247 -8.72918 -10.686 
1 8.96036 -8.88175 -7.39346 
1 -10.7051 -4.99972 -8.96313 
1 -8.91884 -5.28228 -10.611 
1 -9.13273 -7.03564 -8.85616 
2 -8.88109 -5.12822 -7.11661 
2 -10.8314 -6.72273 -7.01211 
1 -7.28014 -7.05475 -10.5363 
1 -5.41911 -5.30154 -10.701 
1 -7.06122 -5.05478 -8.91716 
1 -5.3918 -7.06631 -8.92097 
2 -7.25573 -7.04492 -7.27982 
1 -5.4213 -5.21301 -7.23409 
2 -3.55758 -7.0546 -10.7386 
1 -1.92388 -5.17149 -10.7462 
1 -1.80919 -7.24253 -8.82818 
1 -3.65998 -5.28227 -8.90773 
1 -3.65995 -7.026 -7.09174 
2 -1.9379 -5.27485 -7.13506 
2 -0.0884126 -5.35986 -8.99815 
1 -0.249829 -7.24478 -10.7509 
2 -0.105794 -7.32816 -7.21214 
2 3.55116 -7.00057 -10.8048 
1 1.63524 -5.34862 -10.5972 
1 1.69252 -7.21877 -9.02375 
1 3.48669 -5.3179 -8.92565 
1 3.46937 -7.04443 -7.19321 
2 1.66945 -5.21626 -7.20732 
1 7.07567 -6.90635 -10.7949 
1 5.32591 -5.30616 -10.722 
1 5.43946 -7.04486 -8.93651 
1 7.02687 -5.34057 -8.92702 
1 6.93375 -7.05238 -7.08628 
1 5.23677 -5.24885 -7.08684 
1 8.86058 -5.11251 -10.9269 
1 10.6194 -5.11676 -9.16781 
1 10.7656 -6.9545 -7.37007 
2 8.70826 -6.96394 -8.96033 
1 8.99356 -5.31212 -7.20097 
1 -12.5829 -1.63633 -7.01649 
1 -10.6166 -1.7256 -8.93361 
1 -9.0284 -1.96822 -10.7283 
1 -10.8246 -3.52479 -6.96973 
1 -8.90072 -3.45351 -8.93245 
1 -8.98886 -1.71559 -7.13905 
1 -8.8666 -0.0449128 -9.03606 
1 -10.6866 -0.24226 -7.0183 
1 -7.14902 -3.54853 -10.7108 
1 -5.44251 -1.65608 -10.6008 
1 -7.18855 -1.73987 -8.90321 
1 -5.33038 -3.46993 -8.96226 
1 -7.07404 -3.40625 -7.12091 
1 -5.41761 -1.52325 -7.18574 
1 -7.27665 -0.0823122 -10.7347 
1 -3.7118 -3.50938 -10.7392 
1 -1.92539 -1.77531 -10.8292 
1 -3.63849 -1.68994 -8.84932 
2 -1.92458 -3.39652 -8.96753 
1 -3.76388 -3.36637 -7.1637 
1 -1.90529 -1.74196 -7.19375 
1 -0.13256 -1.84314 -8.98361 
1 -0.100681 -3.55296 -10.9261 
1 -0.0046005 -3.53196 -7.18209 
1 -0.193694 0.0344749 -10.7421 
1 3.402 -3.58721 -10.6 
1 1.65403 -1.85709 -10.684 
1 1.78531 -3.45271 -8.93124 
2 3.623 -1.75979 -8.87159 
1 3.5873 -3.44471 -7.06378 
1 1.64657 -1.65392 -7.09035 
2 1.65299 0.0135692 -8.98972 
1 3.46257 0.117183 -10.6866 
1 7.00415 -3.57646 -10.5927 
1 5.29022 -1.87016 -10.6767 
1 6.99177 -1.85893 -8.99615 
1 5.30408 -3.62308 -8.86564 
1 7.01405 -3.59609 -7.16287 
1 5.35263 -1.76014 -7.02557 
2 7.26237 0.000199464 -10.6773 
1 9.02353 -1.8984 -10.7883 
1 10.7305 -3.70972 -7.18776 
1 8.68684 -3.61482 -8.94117 
2 8.73967 -1.8879 -7.27335 
2 10.6095 -1.96233 -8.96214 
1 8.82386 0.193071 -8.86818 
1 12.4682 -1.68819 -7.2432 
1 -1.65825 -14.1933 -5.18179 
1 -3.64325 -12.7655 -5.08738 
1 -1.81376 -12.5362 -3.25539 
2 0.134503 -14.2073 -3.26797 
1 3.67887 -12.5161 -5.37284 
1 -10.7372 -8.81781 -5.44703 
1 -9.02559 -10.6394 -5.27252 
2 -8.98919 -8.87585 -3.60439 
1 -5.44592 -12.5912 -3.44754 
1 -7.06254 -10.7358 -3.59549 
1 -5.36696 -10.8061 -5.28908 
1 -7.17541 -8.95525 -5.41545 
1 -5.49272 -8.90971 -3.68373 
2 -1.74299 -10.8678 -5.23772 
1 -3.53745 -10.7441 -3.38576 
1 -3.6837 -8.95005 -5.28793 
2 -1.85694 -8.80571 -3.62982 
1 0.0319668 -12.6633 -5.4004 
2 1.96464 -12.5924 -3.60014 
1 0.0185474 -8.96361 -5.31558 
2 0.0536947 -10.6883 -3.43264 
1 1.79483 -10.7679 -5.37258 
1 3.50376 -10.6672 -3.58987 
1 3.63047 -8.98239 -5.3151 
1 1.82603 -8.96826 -3.55122 
1 5.3079 -12.4628 -3.56585 
2 7.18444 -10.6245 -3.7545 
1 5.30329 -10.738 -5.34749 
1 7.13844 -8.71698 -5.4493 
2 5.35529 -8.85532 -3.5912 
1 9.09606 -10.4568 -5.46786 
2 8.99291 -8.72384 -3.68618 
1 10.7616 -8.56852 -5.60967 
1 -12.7451 -5.02281 -3.41138 
1 -10.8387 -7.00617 -3.64349 
1 -10.802 -5.13085 -5.18221 
2 -8.87088 -6.97487 -5.35604 
1 -8.9484 -5.37577 -3.53441 
1 -7.12948 -7.17511 -3.65449 
1 -7.06632 -5.27696 -5.35825 
1 -5.48501 -7.0862 -5.39968 
1 -5.35464 -5.24289 -3.64571 
1 -1.95463 -6.9932 -5.39416 
1 -3.85297 -7.08398 -3.56274 
1 -3.73917 -5.21106 -5.35736 
1 -1.91884 -5.32205 -3.6181 
2 -0.0374277 -5.40147 -5.33071 
1 -0.0697668 -7.1609 -3.52545 
2 1.85962 -7.25245 -5.30531 
1 3.6076 -7.18308 -3.47428 
1 3.59411 -5.43513 -5.1932 
1 1.83908 -5.34538 -3.56222 
1 7.14107 -7.06924 -3.60211 
1 5.28838 -7.02783 -5.37436 
1 7.06602 -5.29463 -5.35515 
1 5.44935 -5.20468 -3.57442 
1 10.9023 -7.05183 -3.62746 
1 11.0583 -5.38105 -5.33676 
2 8.93474 -7.02657 -5.57811 
2 8.99704 -5.27048 -3.62024 
1 12.6342 -5.0658 -3.44064 
1 -14.2861 -3.16945 -3.61217 
2 -12.5487 -1.55255 -3.56185 
1 -12.6174 -3.57105 -5.35147 
1 -10.8433 -1.70277 -5.22267 
2 -10.784 -3.55569 -3.35949 
1 -8.8496 -3.4641 -5.21621 
2 -8.91617 -1.76892 -3.42824 
2 -7.08228 -1.7325 -5.39709 
1 -7.14619 -3.66511 -3.54036 
1 -5.37983 -3.39887 -5.25024 
1 -5.32682 -1.80132 -3.30976 
1 -3.61908 -1.79505 -5.39042 
1 -1.93086 -3.58503 -5.39512 
1 -3.69803 -3.55359 -3.61979 
1 -1.81208 -1.79013 -3.52395 
1 -0.10048 -3.59945 -3.63339 
1 -3.5985 0.148187 -3.4936 
1 -0.246477 -1.85306 -5.46749 
1 1.75241 -3.50193 -5.37099 
1 3.55309 -1.59744 -5.35129 
1 3.53238 -3.50573 -3.59193 
2 1.78391 -1.76101 -3.72702 
1 3.53336 0.0330292 -3.68125 
1 7.05605 -1.81749 -5.29563 
1 7.31055 -3.44754 -3.56715 
1 5.25686 -3.55135 -5.37979 
1 5.37288 -1.81139 -3.56769 
1 5.33251 0.0461032 -5.27893 
1 10.5043 -1.65369 -5.58833 
1 10.6981 -3.57361 -3.67122 
1 9.00706 -3.64675 -5.57362 
1 8.88156 -1.79293 -3.71479 
1 12.1283 -1.6659 -3.70984 
2 12.4398 -3.39841 -5.39539 
2 14.0683 -2.85763 -3.44964 
2 14.0936 -0.156665 -3.73323 
1 -5.40243 -12.4845 0.0471431 
1 -3.5381 -14.0761 0.461018 
1 -1.68366 -14.4771 -1.40487 
1 -1.03675 -14.478 1.04692 
1 0.693416 -14.7209 -0.682315 
1 2.53731 -14.5287 -2.10055 
1 3.53915 -14.4063 0.286761 
2 1.47193 -14.1978 1.77 
1 4.99282 -14.1302 -1.65747 
1 -10.6403 -10.7076 -0.0469053 
1 -10.7712 -8.97413 -1.82 
1 -8.88301 -10.6084 -1.75539 
2 -8.92551 -10.7253 1.73082 
1 -9.00836 -8.91287 0.0914598 
2 -10.8089 -8.92983 1.81133 
2 -7.14172 -12.4208 1.6082 
2 -7.32678 -12.2898 -1.50889 
1 -7.08587 -10.5095 0.0098197 
2 -5.30769 -10.7022 -1.77566 
2 -5.30298 -10.5563 1.8342 
1 -7.08044 -8.95821 -1.77763 
1 -7.20225 -8.96445 1.8391 
1 -5.39532 -8.83221 0.0617937 
1 -3.67814 -12.7497 -1.58508 
1 -3.49688 -12.2096 1.72033 
1 -1.77544 -12.3996 -0.0281811 
1 -3.6528 -10.6406 -0.111569 
1 -1.80378 -10.6335 -1.65701 
1 -1.76763 -10.4834 1.65044 
1 -3.52655 -8.85314 -1.853 
1 -3.47022 -8.80637 1.8256 
1 -1.74556 -8.79452 -0.021138 
2 0.0451908 -12.4043 -1.4939 
1 0.109831 -10.5292 0.0689004 
1 0.0031026 -8.86713 -1.75095 
1 -0.111723 -12.3189 1.64678 
1 0.145152 -8.74101 1.71144 
2 1.89436 -12.4611 -0.0245378 
1 3.7105 -12.4358 1.77834 
1 3.59433 -12.3094 -1.88975 
1 3.65153 -10.6 0.0691268 
1 1.91198 -10.6833 -1.72666 
1 1.77673 -10.6444 1.73122 
1 3.58688 -8.86164 -1.76672 
1 3.61887 -8.83464 1.84941 
1 1.8686 -8.87981 0.0526534 
1 5.31556 -12.5475 0.0988772 
2 6.95817 -12.244 -1.74122 
1 7.11711 -12.3853 1.83413 
1 6.91996 -10.685 -0.0294207 
1 5.25074 -10.579 -1.73519 
1 5.32646 -10.7398 1.84338 
1 7.08813 -8.97142 -1.74928 
2 7.11008 -8.94375 1.76398 
1 5.32063 -8.82258 0.0190733 
1 8.93731 -12.0154 -0.0565913 
1 8.88613 -10.5584 -1.97246 
1 10.6978 -8.75441 -1.93642 
1 10.8205 -9.01885 1.95013 
2 8.95386 -9.09718 -0.0540229 
1 8.98628 -10.7176 1.89381 
1 -12.5373 -6.97408 -1.94204 
1 -12.675 -5.28183 -0.0932203 
2 -10.926 -7.15028 -0.0550426 
1 -10.6446 -5.4319 -1.76025 
1 -10.7702 -5.47155 1.79563 
1 -8.94065 -7.31451 -1.77934 
1 -9.00197 -7.24432 1.8804 
1 -9.02981 -5.40161 -0.0309538 
1 -7.18445 -7.27066 0.0624557 
1 -7.26803 -5.54783 -1.74929 
1 -5.45688 -7.16917 -1.77471 
2 -7.28195 -5.5032 1.76527 
1 -5.40282 -7.20313 1.79556 
1 -5.45282 -5.47979 0.0389252 
1 -3.66685 -7.08275 -0.0483934 
1 -1.82506 -7.09181 -1.89597 
1 -1.80593 -7.11005 1.75968 
1 -3.63337 -5.45526 -1.73505 
1 -3.67071 -5.47286 1.74169 
2 -1.8598 -5.47334 -0.0847958 
1 -0.0151511 -5.39744 -1.92586 
1 0.0174755 -5.25761 1.82495 
1 0.0840782 -7.03785 -0.0537085 
1 3.70429 -7.03125 0.0796229 
2 1.824 -7.18249 -1.76295 
1 1.81022 -6.94393 1.68336 
2 3.73624 -5.24434 -1.75157 
1 3.68652 -5.39664 1.74335 
1 1.8048 -5.36142 -0.00775277 
1 7.17758 -7.18688 0.021519 
1 5.51558 -7.09998 -1.71367 
1 7.21907 -5.29697 -1.73735 
1 5.40597 -7.15941 1.779 
2 7.32481 -5.3595 1.74979 
1 5.53466 -5.26923 -0.00751248 
1 10.6763 -7.09066 -0.0515497 
1 10.7119 -5.32989 1.73749 
1 10.7286 -5.15317 -1.88311 
1 8.74883 -7.09715 -1.73116 
1 8.97672 -7.16841 1.76467 
1 9.05862 -5.28847 -0.112929 
1 12.468 -7.07334 -1.82851 
2 12.5098 -5.31276 -0.270707 
1 12.4546 -6.95712 1.54868 
1 -14.2483 -3.46444 0.119232 
2 -14.3576 -1.59719 -1.62757 
1 -14.3531 -1.82459 1.85536 
1 -12.6643 -3.37821 -1.692 
1 -12.5818 -1.63855 0.135532 
1 -12.3436 -3.42551 1.62378 
1 -10.7431 -3.61626 -0.0468094 
1 -10.841 -1.69471 -1.57245 
1 -10.6822 -1.76504 1.76673 
1 -8.84305 -3.58682 -1.70012 
2 -9.18534 -3.58615 1.82253 
1 -9.00654 -1.82496 0.0167615 
1 -7.27323 -3.66141 0.0444263 
1 -7.17392 -1.78008 -1.64585 
1 -7.24521 -1.69958 1.75727 
1 -5.40441 -3.72092 -1.66753 
2 -5.44714 -3.66173 1.76413 
2 -5.29879 -1.76292 -0.134406 
2 -5.41399 0.153616 1.83211 
1 -3.68509 -3.65436 -0.00653541 
1 -3.52018 -1.73847 -1.77933 
2 -1.78219 -3.60641 -1.82044 
2 -3.59825 -1.74904 1.92821 
1 -1.8993 -3.60597 1.72912 
1 -1.91908 -1.86255 0.0313268 
1 -0.120688 -1.76702 1.79886 
1 -0.120947 -1.75652 -1.76085 
1 -0.0793829 -3.6132 0.152752 
1 -0.109933 -0.0479882 0.0775088 
1 1.65846 0.0176539 -1.89081 
2 3.62349 -3.41183 -0.0136305 
2 1.66456 -3.48112 -1.75168 
1 3.47316 -1.80422 -1.94526 
1 1.81486 -3.54365 1.73966 
1 3.63859 -1.7135 1.85302 
1 1.60588 -1.7854 -0.0838738 
2 1.74721 -0.111877 1.85223 
2 3.54852 -0.103039 -0.0971991 
1 7.26363 -3.53397 0.0423749 
1 7.1708 -1.6933 -1.85469 
1 7.14292 -1.82392 1.7224 
1 5.42651 -3.51147 -1.8224 
1 5.39002 -3.46517 1.79775 
2 5.56243 -1.73959 -0.0531131 
1 5.33911 0.0811013 -1.97606 
1 7.15625 0.0231354 -0.0482916 
1 10.7218 -3.50684 -0.0997863 
1 10.6622 -1.80617 1.87624 
1 10.464 -1.67383 -2.04838 
1 9.0024 -3.562 -1.77839 
1 9.01615 -3.55022 1.79327 
2 8.96435 -1.80859 -0.0865796 
1 12.3928 -3.23216 -1.89328 
2 12.3842 -3.64826 1.70245 
2 12.2801 -0.108469 -1.94297 
1 12.2371 -1.70781 0.059915 
2 14.0635 -3.27374 -0.201708 
1 14.6947 -1.40213 -1.62071 
1 14.2562 -1.83742 1.73378 
2 -5.13092 -12.7506 3.53663 
2 -2.86975 -14.1606 2.93875 
1 -0.318062 -14.3049 3.45802 
2 -3.32479 -12.4883 5.1833 
1 3.51009 -14.0709 3.41663 
1 3.20132 -12.4706 5.36051 
1 5.4441 -12.5415 3.6816 
1 -10.5595 -10.8885 3.48035 
1 -10.7408 -9.04004 5.40263 
2 -8.72534 -8.98689 3.67325 
2 -8.90509 -10.8276 5.41548 
1 -7.13648 -10.9018 3.64898 
1 -5.17815 -10.8638 5.25073 
1 -7.17701 -8.89318 5.49749 
2 -5.47169 -8.8314 3.84994 
1 -1.60493 -12.2553 3.3916 
1 -1.71814 -10.6144 5.29185 
1 -3.46996 -10.7425 3.50986 
2 -3.3892 -8.88958 5.21591 
1 -1.70157 -8.87356 3.40196 
2 0.0811388 -12.4327 5.22163 
1 0.0473947 -8.80733 5.28295 
1 0.114711 -10.5273 3.45764 
1 1.58336 -12.5236 3.47811 
1 1.70254 -10.5943 5.25617 
2 3.48021 -10.7649 3.53937 
1 3.5762 -8.89997 5.34154 
1 1.81268 -8.80676 3.5557 
1 7.20153 -10.8464 3.75609 
1 5.26222 -10.8237 5.37834 
2 7.15213 -8.89679 5.56568 
2 5.43937 -8.99557 3.68676 
1 9.00922 -10.6107 5.56552 
2 8.82765 -8.9072 3.66287 
2 10.7608 -8.66727 5.30503 
1 -12.4199 -5.5178 3.5978 
1 -10.8004 -7.19074 3.73753 
1 -10.8973 -5.41762 5.41804 
1 -8.89256 -7.19455 5.34424 
1 -9.1198 -5.47994 3.67815 
1 -7.1687 -7.08411 3.53328 
1 -7.31598 -5.47348 5.38164 
1 -5.55728 -7.15238 5.48875 
2 -5.42058 -5.47464 3.60669 
1 -1.8491 -7.14514 5.35412 
1 -3.57457 -7.14635 3.55083 
1 -3.62594 -5.55277 5.39379 
2 -1.75872 -5.37104 3.50811 
2 0.104081 -5.40327 5.34188 
1 0.0885932 -7.1036 3.55401 
1 1.94933 -7.1546 5.33931 
1 3.6122 -7.13838 3.57389 
1 3.65163 -5.30724 5.35473 
1 1.89866 -5.32862 3.49793 
1 7.26088 -7.03119 3.65189 
1 5.21411 -7.13208 5.44084 
2 7.15171 -5.31393 5.38317 
2 5.44267 -5.26614 3.5502 
1 10.6345 -6.98019 3.54512 
1 10.6554 -5.42076 5.34798 
1 8.91097 -7.07983 5.45836 
1 9.0034 -5.27147 3.53281 
2 12.4345 -5.48308 3.53345 
1 -14.1839 -0.189678 3.73634 
1 -13.9527 -3.53673 3.45441 
1 -12.6087 -3.28111 5.391 
1 -12.4188 -1.75305 3.53551 
1 -10.7197 -1.7501 5.37518 
1 -10.8209 -3.58885 3.74542 
1 -9.09615 -3.66793 5.39071 
2 -9.15232 -1.76566 3.60431 
1 -7.29736 -1.8081 5.52295 
2 -7.29241 -3.57874 3.69468 
1 -5.45699 -3.70764 5.39539 
1 -5.63979 -1.77256 3.6394 
1 -7.24466 0.00732194 3.57483 
2 -3.63213 -1.84323 5.26248 
2 -1.82379 -3.63287 5.40485 
1 -3.65473 -3.61525 3.61699 
1 -1.72005 -1.8249 3.58471 
1 0.121175 -1.89778 5.34572 
1 0.0107182 0.0139008 3.69176 
1 0.121567 -3.59466 3.46617 
1 1.874 -3.54581 5.27528 
1 3.68593 -1.84244 5.50481 
1 3.58121 -3.44956 3.53571 
1 1.77995 -1.78412 3.61646 
1 3.58878 -0.018326 3.69116 
1 7.17253 -1.85921 5.36774 
1 7.20838 -3.49295 3.54215 
1 5.3402 -3.56815 5.25832 
1 5.46722 -1.83144 3.61786 
1 5.41007 -0.0122876 5.23666 
2 10.7918 -1.87098 5.43651 
1 10.6326 -3.62703 3.60696 
2 8.98752 -3.61113 5.53622 
1 8.91304 -1.93885 3.5334 
2 12.4554 -1.77831 3.50965 
1 12.4795 -3.71349 5.49092 
1 14.0952 -3.49053 3.55286 
1 14.2046 -1.86739 5.32484 
2 14.2812 0.0596143 3.53913 
1 -8.95565 -9.08272 7.08471 
1 -5.36412 -9.09038 10.6379 
1 -5.13106 -10.6759 8.81383 
1 -6.93987 -10.7885 7.03954 
2 -7.08214 -8.98368 8.70107 
1 -5.27979 -8.96371 7.03089 
1 -1.66764 -12.2683 7.05941 
2 -1.85912 -8.92895 10.6715 
1 -1.68034 -10.6433 8.91594 
1 -3.41834 -10.6586 6.96292 
1 -3.50086 -8.95686 8.83954 
1 -1.8112 -8.85534 7.07901 
1 0.0356643 -10.6252 7.05418 
1 -0.0856509 -8.91014 8.88505 
1 1.52494 -12.4272 7.17625 
1 1.67441 -10.5379 8.88035 
1 3.41273 -10.6525 7.09918 
1 3.50478 -9.06499 8.98075 
1 1.74926 -8.7588 7.11924 
1 1.58945 -8.93237 10.8161 
1 6.97422 -10.8591 7.11934 
1 5.4354 -9.05015 10.5614 
1 5.19693 -10.7333 8.78793 
1 7.17359 -9.08484 9.00685 
1 5.16521 -8.92421 7.12282 
1 9.13564 -8.92884 7.36373 
1 -10.776 -5.31432 9.06119 
2 -10.5235 -7.04932 7.19961 
1 -8.98749 -7.19042 8.99394 
1 -8.9999 -5.26749 7.22172 
1 -8.7599 -5.33272 10.6167 
1 -6.92135 -7.22709 10.6608 
1 -7.09329 -5.39754 8.89008 
1 -5.3962 -7.257 8.75847 
1 -7.30173 -7.11772 7.18168 
1 -5.48259 -5.42826 7.10053 
1 -5.50076 -5.2673 10.7333 
2 -3.76272 -7.24706 10.654 
1 -1.94911 -5.48363 10.5461 
1 -1.74673 -7.24901 8.89656 
2 -3.72761 -5.44531 8.80977 
1 -3.60943 -7.16105 7.08021 
1 -1.75468 -5.45371 7.09687 
1 -0.0179918 -7.21173 10.5876 
1 -0.137837 -7.13801 7.10931 
2 0.0579503 -5.36385 9.03399 
1 3.76483 -7.34127 10.7678 
1 2.02462 -5.28872 10.6152 
1 1.77692 -7.25643 8.95694 
1 3.66998 -5.56247 8.99899 
1 3.53953 -7.29533 7.30401 
2 1.87226 -5.44141 7.26157 
1 6.94138 -7.13669 10.8501 
1 5.30673 -5.42387 10.7401 
1 5.47801 -7.28048 8.91681 
1 7.04318 -5.36763 8.9914 
1 7.18888 -7.11585 7.28246 
2 5.30664 -5.40807 7.27107 
1 8.70282 -5.20868 10.7963 
1 10.5129 -5.32217 9.14986 
1 10.6841 -6.97273 7.17278 
1 8.88319 -7.2497 9.03831 
1 8.92643 -5.26995 7.28382 
2 -12.2661 -1.59705 7.21678 
1 -9.11689 -1.68354 10.2492 
1 -11.1993 -2.99344 9.3685 
2 -10.8318 -3.64081 7.10895 
1 -8.87761 -3.55743 8.93853 
2 -9.19456 -1.68365 7.34081 
1 -11.0965 -0.603481 9.17147 
1 -7.29808 -3.40559 10.6538 
1 -5.38299 -1.78499 10.5723 
1 -7.21995 -1.75845 8.84782 
2 -5.43554 -3.56044 8.92241 
1 -7.27294 -3.6234 7.13139 
1 -5.55405 -1.85444 7.11771 
1 -3.65095 -3.57466 10.6581 
1 -1.79993 -1.73568 10.7261 
1 -3.63612 -1.74826 8.88584 
2 -1.8309 -3.4744 8.89305 
1 -3.74804 -3.69914 6.95757 
1 -1.75791 -1.78613 7.16745 
1 -0.00549111 -1.70458 8.9559 
2 0.0400909 -3.59049 7.13408 
1 -0.0623449 -3.38792 10.6077 
1 1.75627 -1.71086 7.0063 
2 3.59241 -3.5004 7.26292 
1 1.88266 -1.68451 10.7748 
1 1.76563 -3.29341 8.88166 
1 3.54776 -1.67885 8.94252 
1 3.57707 -3.58323 10.6078 
1 3.57874 0.0100935 7.20181 
1 5.33405 -3.52087 8.99466 
1 7.13692 -3.50396 7.30812 
1 5.2528 -1.77936 10.8263 
1 7.10677 -1.7933 9.03883 
1 5.49093 -1.67864 7.09307 
1 7.03413 -3.56623 10.7633 
1 7.26513 -0.0884024 7.11422 
2 10.5072 0.0907415 7.20355 
2 12.5743 -1.67473 7.32345 
2 8.8845 -0.102144 9.13461 
1 8.83723 -1.85797 7.23985 
1 8.94816 -1.91336 11.0145 
1 8.87019 -3.54137 9.05035 
2 10.6806 -2.00761 9.18265 
1 12.261 0.110751 9.00929 
1 10.8687 -3.63214 7.30546 
1 0.003736 -8.61297 12.6029 
1 0.0407106 -5.25942 12.0935 
1 -0.176972 -6.34869 14.1383 
1 -3.65193 -5.34523 12.3109 
1 -1.83293 -6.93611 12.4412 
1 1.86466 -4.97133 14.1157 
2 1.72162 -6.97118 12.3619 
1 3.66112 -5.41511 12.4953 
1 -5.4323 -0.0353135 12.3679 
1 -7.42082 -1.69948 12.1156 
1 -5.49831 -3.4012 12.5014 
1 -3.45856 0.0315886 14.0836 
2 -0.160402 -3.70424 13.9022 
1 -0.128971 -0.0844565 14.1855 
1 -0.0476542 -1.88305 12.4524 
1 -3.67298 -1.74892 12.39 
1 -1.96657 -3.73013 12.2508 
1 -1.80774 -1.78466 14.1474 
1 -1.84139 0.11668 12.4269 
1 1.63559 -1.9562 14.178 
1 1.77637 -3.54321 12.2249 
1 3.53937 -1.88137 12.6325 
1 1.66381 -0.055849 12.5763 
1 3.45006 0.00134669 14.2848 
1 7.02147 -1.72952 12.5612 
2 5.36718 -3.62522 12.3793 
1 5.27764 0.0288933 12.7127 
1 -7.32248 1.63053 -12.4248 
1 -5.62002 3.58596 -12.4786 
1 -5.5248 0.0786119 -12.6241 
2 -1.95561 1.83083 -14.3268 
2 -3.7692 1.91528 -12.563 
1 -1.90048 3.57792 -12.5716 
2 -0.0838639 1.86421 -12.5181 
1 0.0204672 3.59598 -14.2943 
1 -3.4776 -0.0520111 -14.4173 
1 3.56092 3.3774 -14.3327 
1 3.50391 1.81885 -12.5915 
2 1.91055 3.67053 -12.5409 
1 1.70967 1.82705 -14.2963 
2 3.37529 -0.078971 -14.2821 
2 1.69752 -0.0548895 -12.4535 
1 5.41002 1.63887 -14.2578 
1 7.18594 1.75303 -12.3824 
1 5.33037 3.48486 -12.6163 
1 -1.6317 7.1938 -12.4473 
1 -3.67302 5.17068 -12.5752 
1 -0.023065 5.35578 -12.4583 
1 1.58318 7.145 -12.4019 
1 3.64679 5.28672 -12.5781 
1 -12.2655 1.78031 -7.27921 
1 -11.1577 2.91945 -9.30184 
1 -9.31572 1.66567 -10.5382 
2 -8.9358 3.77213 -8.93453 
2 -9.2927 1.84226 -7.27918 
1 -10.8209 3.84254 -7.12898 
1 -11.235 0.685087 -9.13731 
1 -7.2705 3.63376 -10.7653 
2 -5.35907 1.75708 -10.723 
2 -7.21297 1.83926 -9.037 
1 -5.52501 3.61725 -8.98023 
1 -7.17059 3.76427 -6.95414 
2 -5.38312 1.8344 -7.01507 
1 -5.38404 0.0456612 -8.86539 
1 -7.26161 0.181038 -7.23051 
1 -3.62109 -0.0472846 -10.735 
1 -3.53908 3.61333 -10.8062 
1 -2.02085 1.86977 -10.676 
1 -3.79917 1.90118 -8.97526 
2 -1.78422 3.57199 -8.92203 
2 -3.65142 3.75125 -7.07366 
1 -1.85794 1.82842 -7.09833 
1 -0.0583407 3.58429 -7.13944 
1 -0.175141 1.77371 -8.8637 
1 -3.5953 0.072793 -7.099 
1 -1.9202 0.12573 -8.99133 
1 -0.166548 0.093468 -7.10754 
1 -0.197512 3.54387 -10.7524 
1 3.50478 3.51394 -10.7858 
1 1.69438 1.78893 -10.6954 
1 3.5732 1.9097 -8.98453 
2 1.71721 3.60044 -8.94619 
1 3.68969 3.65694 -7.14044 
2 1.7648 1.80218 -7.13061 
1 3.60591 0.0230877 -7.12247 
2 7.12965 3.78771 -10.8059 
1 5.27256 1.80235 -10.7447 
1 7.10773 1.85374 -9.00858 
1 5.50255 3.65245 -9.03763 
1 7.14551 3.50648 -7.09311 
1 5.20905 1.82093 -7.10707 
2 7.04235 0.0245726 -7.09987 
2 5.35023 0.0960484 -8.99855 
1 8.92437 1.89549 -10.6509 
2 10.6937 2.10128 -8.98942 
1 8.86598 3.68095 -8.92247 
1 8.80428 1.8666 -7.26256 
1 10.5567 3.70797 -7.09038 
2 12.4591 1.8336 -7.00761 
1 10.6693 0.152906 -10.4942 
2 10.6809 0.0471796 -7.42999 
1 -10.9009 5.59907 -8.86684 
1 -10.8738 7.2066 -7.06065 
1 -9.10156 7.15334 -8.87922 
1 -9.07009 5.36126 -6.93785 
1 -9.02462 5.4764 -10.7865 
2 -5.49653 5.42784 -10.7371 
1 -7.40596 7.0721 -10.6874 
1 -7.13875 5.43773 -8.9004 
1 -5.41255 7.2651 -8.86664 
2 -7.24574 7.05524 -7.14774 
1 -5.43168 5.40757 -7.12312 
2 -3.70414 7.21972 -10.8668 
1 -1.79073 5.4545 -10.658 
1 -1.8691 7.19096 -8.99638 
2 -3.65117 5.51671 -9.0425 
1 -3.69989 7.10858 -7.09838 
1 -1.7282 5.53609 -7.13797 
2 -0.0183212 5.34154 -8.922 
1 -0.0543232 7.14245 -10.5826 
1 -0.0343311 7.16549 -7.19417 
1 3.49182 7.22408 -10.9128 
1 1.83185 5.37251 -10.7916 
2 1.77663 7.09946 -8.99661 
1 3.54284 5.28561 -9.03157 
1 3.62759 7.01414 -7.16035 
1 1.80752 5.35202 -7.08189 
1 7.18565 6.9857 -10.6446 
1 5.17778 5.37193 -10.7564 
1 7.01488 5.37526 -8.78995 
1 5.1732 6.91119 -8.96455 
1 7.04066 7.20805 -7.16003 
1 5.37082 5.33481 -7.03756 
1 8.89614 5.29551 -10.6883 
1 10.6452 5.28125 -8.89012 
1 8.85742 7.04576 -8.83078 
1 8.76437 5.42693 -7.14235 
2 10.5311 7.04565 -7.03507 
1 -9.11242 8.90052 -7.04853 
1 -5.49311 8.93662 -10.6003 
1 -5.51228 10.6633 -8.78495 
1 -7.30411 8.89445 -8.84341 
1 -5.46834 8.93904 -7.06812 
1 -7.29127 10.6707 -7.0381 
2 -1.69675 9.01292 -10.7928 
2 -1.9379 10.6955 -8.77208 
1 -3.65125 10.7238 -7.06513 
1 -3.71077 9.01783 -8.9011 
1 -1.90222 8.7957 -7.25841 
1 -0.175481 10.5444 -7.1149 
1 -0.0641925 10.7773 -10.3427 
1 -0.0935466 8.96902 -8.83181 
1 1.42396 8.97035 -10.7858 
1 1.75788 10.6211 -8.98231 
1 3.52098 10.4838 -7.23976 
1 3.53517 8.71739 -9.01685 
1 1.71974 8.89187 -7.24732 
2 1.47223 12.3008 -7.30177 
1 5.35705 8.64424 -10.7339 
1 5.15298 10.5577 -9.04569 
1 7.04962 10.4948 -7.17893 
1 7.06765 8.9272 -8.99587 
1 5.36496 8.85776 -7.21881 
1 8.88694 8.9681 -7.22704 
1 -1.66007 12.5259 -7.12831 
2 -14.2367 3.38092 -3.24206 
2 -12.6629 3.45481 -5.28186 
1 -12.5426 0.131676 -5.36627 
1 -12.5762 1.65522 -3.38814 
1 -14.438 0.0728375 -3.61379 
2 -10.8209 1.85244 -5.17806 
1 -10.7308 3.65766 -3.44371 
1 -9.0492 3.70977 -5.27461 
2 -8.95942 1.95153 -3.3619 
1 -10.7065 0.0776977 -3.42889 
2 -8.90057 0.081428 -5.22798 
2 -7.06325 0.054197 -3.42971 
1 -7.22714 1.93538 -5.35119 
2 -7.14703 3.67993 -3.51521 
1 -5.42165 3.78158 -5.35632 
1 -5.3436 1.99355 -3.43483 
1 -5.26514 0.173112 -5.17711 
1 -3.55246 1.93402 -5.21423 
1 -1.93657 3.706 -5.37334 
1 -3.54856 3.71883 -3.46131 
1 -1.86151 1.88456 -3.54946 
1 -0.166672 1.77913 -5.30628 
1 -0.142547 3.59291 -3.64826 
1 -1.97876 0.0562141 -5.22942 
1 -0.143316 -0.130772 -3.65528 
1 3.52593 1.68146 -5.3535 
2 1.61891 3.6365 -5.2891 
1 3.43469 3.56467 -3.62231 
2 1.60525 1.70173 -3.65131 
1 1.65 -0.00903697 -5.40559 
1 7.05827 1.85529 -5.45591 
1 7.10181 3.5229 -3.55965 
1 5.32538 3.57512 -5.27253 
1 5.36595 1.84779 -3.67102 
1 7.12543 0.0301462 -3.63509 
1 10.5944 1.78853 -5.42496 
1 10.7682 3.60277 -3.68955 
2 8.87406 3.67957 -5.43685 
1 8.73629 1.77274 -3.65977 
1 12.4987 1.80638 -3.77025 
1 12.6548 3.67236 -5.36392 
2 12.4905 -0.0424433 -5.46677 
1 10.5476 0.123893 -3.69686 
1 8.88574 0.115642 -5.46452 
1 14.2687 3.34504 -3.59467 
1 -12.7237 5.51647 -3.5372 
1 -10.8803 7.21343 -3.43929 
1 -10.8606 5.37555 -5.19292 
2 -9.05268 7.20204 -5.17379 
1 -8.98414 5.34659 -3.36765 
1 -7.15884 7.18548 -3.52927 
1 -7.14809 5.38828 -5.1802 
1 -5.37702 7.21227 -5.26122 
1 -5.33073 5.54434 -3.59234 
1 -1.8441 7.16655 -5.28753 
1 -3.52351 7.11186 -3.45429 
1 -3.57611 5.45954 -5.43754 
1 -1.8861 5.40955 -3.59302 
1 -0.0597846 5.40444 -5.3209 
2 0.0497701 7.17619 -3.60232 
1 1.83015 7.18846 -5.43815 
2 3.42299 7.11281 -3.50064 
1 3.492 5.31412 -5.40576 
1 1.72062 5.29876 -3.45814 
1 7.10534 7.00445 -3.62894 
1 7.04108 5.30955 -5.23768 
2 5.26466 7.18291 -5.40517 
1 5.32418 5.18073 -3.63026 
1 10.6512 7.12419 -3.42619 
1 10.8987 5.49872 -5.25083 
1 8.90479 7.18038 -5.26225 
1 8.94512 5.37485 -3.68728 
2 12.5157 5.28889 -3.33984 
1 -10.9681 8.84369 -5.14178 
1 -9.04934 10.5058 -5.12411 
1 -8.97189 8.94952 -3.19671 
1 -10.683 10.5716 -3.36637 
1 -7.11185 10.7965 -3.56033 
1 -5.42198 10.7765 -5.2949 
1 -7.16825 8.81566 -5.22189 
1 -5.4445 8.99268 -3.51916 
1 -5.14316 12.3869 -3.44152 
1 -1.88714 10.6343 -5.25157 
1 -3.70842 10.6252 -3.45637 
2 -3.59789 8.94031 -5.35604 
1 -1.84566 8.96307 -3.56589 
1 -3.5137 12.4825 -5.18174 
1 0.0310559 10.6019 -3.60032 
1 -0.0848057 8.89615 -5.4336 
1 -1.89217 12.2452 -3.44882 
1 -0.294403 12.2569 -5.25387 
2 1.7688 10.724 -5.38991 
1 3.56561 10.7149 -3.64486 
1 3.53563 8.91526 -5.51454 
1 1.84808 8.94965 -3.5892 
1 1.64678 12.4534 -3.54174 
1 3.64443 12.5096 -5.58178 
1 7.15334 10.7309 -3.52342 
2 5.38802 10.7771 -5.53354 
1 7.09008 8.82397 -5.34983 
2 5.31958 8.99059 -3.5278 
1 5.53729 12.5491 -3.74993 
1 10.7314 8.84134 -5.14922 
1 8.80509 10.5017 -5.30412 
1 8.86213 8.94508 -3.51029 
1 -3.26627 14.2762 -3.50699 
1 -0.195805 14.1582 -3.71273 
2 1.51079 13.8347 -5.43311 
1 3.3229 14.2175 -3.80459 
1 -14.3742 0.166698 0.290175 
1 -14.2676 3.59998 0.138187 
1 -14.3636 1.59957 -1.63272 
1 -14.1485 1.95217 2.00975 
2 -12.4118 3.62018 1.92528 
1 -12.5207 1.73694 0.137158 
1 -12.4614 0.0553257 -1.62993 
1 -10.6627 -0.0305855 0.0178136 
1 -12.4747 3.50071 -1.73167 
2 -10.7834 3.64295 0.0683858 
1 -10.6917 1.888 -1.58233 
1 -10.802 1.81241 1.8946 
1 -8.86211 3.76038 -1.65705 
1 -9.03204 3.57968 1.7779 
1 -8.9346 1.78867 0.00374625 
2 -8.97547 0.0474327 1.83987 
2 -12.3954 0.00772204 1.90307 
1 -8.93516 0.0222581 -1.64565 
1 -7.21119 3.52771 0.0150184 
1 -7.18285 1.84017 -1.59523 
1 -7.36604 1.96733 1.85317 
1 -5.36578 3.68225 -1.72014 
1 -5.54971 3.55054 1.80854 
1 -5.39663 1.87172 0.054599 
1 -5.33063 0.142913 -1.7577 
1 -7.15987 0.0214465 -0.0207639 
2 -3.5391 3.62437 0.216521 
1 -3.58943 1.88788 -1.69522 
2 -1.72389 3.68776 -1.6865 
1 -3.61534 1.77894 1.84374 
1 -1.80466 3.5224 1.90735 
1 -1.77138 1.77042 0.187161 
1 -0.119511 1.77289 1.87584 
1 -0.0996295 3.554 0.211779 
1 -3.6455 0.103446 0.0584596 
1 -0.151862 1.6155 -1.79497 
1 -1.8086 0.0073504 1.82493 
1 -1.81718 -0.00958586 -1.68305 
2 3.54283 3.4463 0.0141043 
1 3.52291 1.84243 -1.87263 
2 1.60422 3.52421 -1.79928 
1 3.58325 1.7019 1.79698 
1 1.68429 3.59496 1.81646 
2 1.55835 1.73219 0.028594 
1 7.0606 3.42697 -0.0648487 
1 7.12834 1.77143 -1.81671 
1 7.13633 1.76874 1.80934 
1 5.37595 3.5941 -1.82295 
1 5.41417 3.42389 1.82764 
2 5.4137 1.66617 -0.00107274 
1 5.35113 -0.0459684 1.72188 
1 10.6769 3.67523 -0.0109617 
1 10.7594 1.93762 1.75558 
2 10.5086 1.77543 -1.87076 
1 8.85321 3.6389 -1.87678 
1 8.89257 3.53331 1.70537 
1 8.84914 1.82572 -0.0895615 
1 12.2985 3.43953 -1.7355 
2 8.92978 0.119931 1.72014 
1 10.6768 -0.0180793 -0.0630651 
1 12.4389 1.69075 0.00725719 
1 12.635 3.78763 1.63791 
1 12.4632 0.0880224 1.75463 
1 8.85978 -0.065985 -1.95063 
1 14.376 0.0537514 0.157114 
1 14.2023 3.39686 -0.274576 
2 14.1609 1.57678 -1.87554 
1 14.2664 1.85724 1.86959 
1 -12.5467 5.31479 -0.14022 
1 -12.6565 7.1215 -1.62249 
1 -12.5708 6.89937 1.83134 
1 -10.7655 7.00679 0.0968589 
1 -10.8429 5.34141 -1.84385 
1 -10.7388 5.41299 1.92785 
1 -8.96379 7.19621 -1.64569 
2 -8.99869 7.1871 1.84589 
1 -9.00275 5.39815 -0.0671789 
1 -7.16408 7.28371 0.162418 
1 -7.01565 5.42537 -1.63033 
2 -5.35372 7.22124 -1.71952 
1 -7.18598 5.39328 1.69499 
1 -5.43332 7.22403 1.84416 
1 -5.38206 5.32067 0.0544272 
1 -3.55743 7.22312 0.0280726 
1 -1.82343 7.19464 -1.68669 
1 -1.74423 7.21949 1.97517 
1 -3.57746 5.43411 -1.61944 
1 -3.61316 5.51571 1.83959 
2 -1.77235 5.52036 0.136633 
1 -0.0286165 5.43401 -1.8 
1 0.0798958 7.1879 0.0622079 
1 0.0968124 5.40508 1.82526 
1 3.49352 6.99362 -0.16428 
1 1.65273 7.16424 -1.66231 
2 1.76105 7.17812 1.76391 
1 3.40217 5.25428 -1.78627 
2 3.49214 5.32758 1.75791 
1 1.71133 5.32269 -0.0119967 
1 7.03435 7.0052 0.0775993 
1 7.2142 5.29788 -1.86754 
2 5.41011 7.01205 -1.77819 
1 7.16424 5.11905 1.7474 
1 5.34032 7.0381 1.68412 
1 5.36862 5.28123 -0.0385036 
1 10.6221 6.99764 -0.233816 
1 10.607 5.3329 1.7257 
1 10.5068 5.31708 -1.90404 
1 8.78336 7.15293 -1.88854 
2 8.85278 7.02079 1.77507 
1 8.86458 5.3063 -0.0607111 
2 12.2087 7.06232 1.70692 
1 12.5578 5.39266 -0.303338 
1 12.395 7.27766 -1.75196 
2 -8.72268 10.6724 -1.59621 
1 -8.85562 10.5624 1.84533 
2 -10.7011 8.89766 -1.40066 
1 -10.8546 9.03007 1.81195 
1 -8.97295 8.89908 0.161188 
1 -7.09127 10.6792 0.0409876 
1 -5.27447 10.6923 1.93329 
1 -5.33915 10.6942 -1.66533 
1 -7.05132 8.91262 -1.73132 
1 -7.08048 9.01329 1.81066 
1 -5.32403 9.00888 0.135014 
1 -7.09505 12.5857 -1.90941 
2 -5.32585 12.5438 0.132063 
1 -3.56043 10.7263 -0.015347 
2 -1.74666 10.8092 2.06191 
1 -1.78368 10.5993 -1.75264 
1 -3.54878 8.99437 -1.67559 
2 -3.52912 9.05326 1.92168 
1 -1.76064 8.9682 0.152395 
1 -1.76171 12.3367 0.0738048 
1 -0.115124 9.01561 1.95506 
1 0.0426202 10.6105 0.154365 
1 -0.0200687 12.3172 -1.84146 
1 -3.42048 12.3567 -1.68686 
2 -0.00316737 8.97239 -1.73609 
1 3.58364 10.8044 0.0207973 
1 1.81145 10.6954 1.90141 
1 1.78633 10.6775 -1.82632 
1 3.5383 8.95435 -1.73446 
1 3.60422 8.82713 1.83547 
1 1.82991 8.95697 0.0772833 
2 1.74707 12.3385 -0.152841 
1 0.154441 12.4744 1.81816 
1 7.15283 10.6114 -0.125464 
1 5.41743 10.6569 1.75497 
2 5.39589 10.7659 -1.74774 
1 7.09517 8.83855 -1.87559 
1 7.17613 8.89654 1.73643 
2 5.32442 8.85172 0.10207 
2 6.98468 12.2799 1.60182 
1 7.08502 12.4901 -1.67681 
1 10.6672 8.99545 -1.79242 
2 10.58 8.7235 1.57921 