ITEM: TIMESTEP
1780000
ITEM: NUMBER OF ATOMS
1289
ITEM: BOX BOUNDS pp pp pp
-100 100
-100 100
-100 100
ITEM: ATOMS type x y z 
1 -1.73391 -7.13357 -12.2513 
1 -3.53391 -5.14781 -12.504 
1 -0.0443431 -5.38593 -12.4295 
1 1.7157 -7.09507 -12.3839 
1 3.34691 -5.36373 -12.4921 
1 -6.96284 -1.68079 -12.447 
2 -5.44288 -3.53297 -12.4352 
2 -1.63086 -1.7738 -14.2039 
2 -3.64422 -1.93946 -12.5 
1 -1.75726 -3.58578 -12.2976 
1 0.0725834 -1.70735 -12.3414 
1 0.348262 -3.56724 -14.0135 
1 -3.61684 -0.10195 -14.3806 
2 -1.76692 0.0222613 -12.4534 
2 0.0251161 0.0935532 -14.3825 
2 3.34797 -3.50025 -14.1235 
1 1.88113 -3.48835 -12.1553 
1 3.54767 -1.78387 -12.3742 
1 1.74369 -1.73619 -14.1901 
2 3.49772 -0.0556058 -14.1797 
2 1.84596 0.0333929 -12.3705 
1 5.32277 -2.06001 -14.1483 
2 7.07384 -1.70338 -12.3435 
2 5.26532 -3.72131 -12.4057 
2 5.29713 0.110364 -12.4413 
1 -1.83235 -12.6225 -7.03391 
1 -9.00575 -8.82503 -7.09446 
2 -5.56028 -10.4557 -8.79061 
1 -5.30502 -9.01509 -10.793 
1 -7.47763 -8.83321 -8.86612 
1 -5.46025 -8.81586 -6.95184 
1 -7.1493 -10.5587 -6.8969 
1 -1.9363 -10.7162 -8.68274 
1 -2.11645 -9.01615 -10.5701 
1 -3.96892 -10.8386 -7.02035 
2 -3.68941 -8.93484 -8.77326 
1 -1.9353 -9.02742 -7.09556 
1 -0.273023 -10.5698 -10.5792 
2 -0.0530246 -10.7415 -7.03592 
1 -0.26211 -8.88931 -8.83637 
1 1.75343 -12.4992 -7.19814 
1 1.48823 -8.97547 -10.7459 
2 1.69478 -10.7004 -8.87536 
1 3.53222 -10.7842 -7.14256 
2 3.49139 -8.81629 -8.96864 
1 1.74403 -8.99527 -7.18725 
1 5.10566 -10.6529 -9.08873 
1 7.13632 -8.89254 -8.99352 
1 5.31485 -8.76319 -7.193 
1 7.09246 -10.5673 -7.18885 
1 5.37768 -8.81344 -10.7117 
1 8.86618 -8.83715 -7.33167 
1 -10.6424 -5.03801 -8.88157 
1 -9.02421 -5.13303 -10.5425 
1 -9.12215 -6.96011 -8.90726 
2 -8.90004 -4.97478 -7.05833 
2 -10.6637 -6.84386 -7.02543 
1 -7.20269 -7.11951 -10.6035 
1 -5.44611 -5.31295 -10.8284 
1 -7.13452 -5.28115 -8.95439 
1 -5.48205 -7.24597 -8.95952 
2 -7.0918 -6.97059 -7.17208 
1 -5.31721 -5.30837 -7.26625 
2 -3.80314 -7.1742 -10.8172 
1 -1.8942 -5.50443 -10.7366 
1 -2.03897 -7.1291 -8.91714 
1 -3.7055 -5.26703 -9.03874 
1 -3.62903 -7.04255 -7.14154 
2 -1.98205 -5.27298 -7.19811 
2 -0.136072 -7.15906 -7.11746 
1 -0.106123 -7.26007 -10.611 
2 -0.059673 -5.41072 -9.0687 
2 3.5177 -7.08602 -10.7291 
1 1.75024 -5.24318 -10.6488 
1 1.67667 -7.22305 -8.93934 
1 3.57983 -5.32136 -8.86021 
1 3.53747 -7.15293 -7.07382 
2 1.81821 -5.319 -7.11884 
1 7.07157 -6.99819 -10.5924 
1 5.29121 -5.41943 -10.709 
1 5.26871 -6.98037 -8.88008 
1 7.06574 -5.22591 -8.95132 
1 6.98378 -7.07702 -7.27943 
1 5.35482 -5.26799 -7.16052 
1 8.75728 -5.1857 -10.7274 
1 10.7039 -5.15605 -8.98026 
1 10.805 -6.83109 -7.0054 
2 8.97378 -6.88087 -8.80525 
1 8.93068 -5.06685 -7.13146 
1 -12.355 -1.6385 -6.9085 
1 -10.7965 -1.82318 -8.91238 
1 -8.97236 -1.70012 -10.7818 
1 -10.8561 -3.46488 -7.09306 
1 -8.81743 -3.29064 -8.89755 
1 -9.02555 -1.8552 -7.05926 
1 -7.26615 -3.49225 -10.663 
1 -5.26347 -1.78762 -10.638 
1 -7.06073 -1.69572 -8.86963 
1 -5.36437 -3.53687 -8.91469 
1 -6.97599 -3.5157 -7.01786 
1 -5.28834 -1.69293 -7.17658 
1 -3.52861 -3.58364 -10.6221 
1 -1.81676 -1.6913 -10.6227 
1 -3.47807 -1.75393 -8.88514 
2 -1.7959 -3.48956 -8.92132 
1 -3.70662 -3.48482 -7.06954 
1 -1.81289 -1.70883 -7.11313 
1 -0.0885597 -3.5229 -10.7681 
1 -0.0600129 -1.80112 -8.85465 
1 -0.0516601 -3.55789 -7.17882 
1 -1.87037 0.14742 -8.88295 
1 -0.0842285 0.0606705 -7.03492 
1 3.57676 -3.5939 -10.5536 
1 1.73661 -1.75576 -10.6547 
1 1.69129 -3.5163 -8.82799 
2 3.5754 -1.73556 -8.88062 
1 3.60543 -3.46381 -7.22028 
1 1.66051 -1.76334 -7.00601 
1 3.61119 0.171357 -10.6294 
2 1.75304 0.087171 -8.91196 
1 7.0283 -3.48912 -10.7151 
1 5.27686 -1.75912 -10.7552 
1 7.12308 -1.79732 -9.02009 
1 5.31079 -3.43396 -9.00677 
1 7.02728 -3.62357 -7.18311 
1 5.43226 -1.71972 -7.24216 
2 7.30055 0.186028 -10.7023 
1 9.0254 -1.79274 -10.75 
1 10.7603 -3.486 -7.19707 
1 8.82118 -3.52944 -9.01335 
2 8.92501 -1.77297 -7.08132 
2 10.8498 -1.84106 -8.95495 
1 12.682 -1.79657 -7.00397 
1 -5.51283 -12.3317 -3.44778 
1 -1.74129 -14.1732 -5.14722 
2 -0.0243574 -14.1777 -3.32786 
1 -1.90581 -12.2746 -3.47171 
1 0.0755014 -12.6043 -5.33588 
1 5.26266 -12.3324 -3.57668 
1 -10.7192 -8.72096 -5.14366 
1 -9.07361 -10.465 -5.29063 
2 -8.95764 -8.84471 -3.36854 
1 -7.09666 -10.5418 -3.51724 
1 -5.53509 -10.7046 -5.21524 
1 -7.1916 -8.752 -5.31268 
1 -5.41601 -8.8216 -3.41894 
1 -3.71998 -12.607 -5.18291 
2 -1.94201 -10.714 -5.42391 
1 -3.57808 -10.6447 -3.55127 
1 -3.70109 -8.89542 -5.32772 
2 -1.90097 -8.84461 -3.44645 
1 -0.136137 -8.84888 -5.33704 
2 2.00278 -12.4741 -3.51538 
1 3.59295 -12.3007 -5.36761 
2 0.0207697 -10.7727 -3.61184 
1 1.76442 -10.6236 -5.36656 
1 3.61103 -10.4892 -3.65834 
1 3.53076 -8.90581 -5.45056 
1 1.81689 -8.90997 -3.6359 
2 7.21301 -10.6209 -3.66891 
1 5.43767 -10.6238 -5.46636 
1 7.15871 -8.75628 -5.43713 
2 5.3536 -8.81009 -3.60323 
1 8.75167 -10.5839 -5.56077 
2 8.96834 -8.75803 -3.57976 
1 10.5863 -8.67112 -5.45621 
1 -12.6473 -5.33408 -3.43059 
1 -10.8256 -6.89937 -3.48289 
1 -10.8231 -5.21376 -5.31428 
2 -8.90063 -7.01108 -5.2238 
1 -8.92279 -5.24003 -3.48355 
1 -7.17219 -7.02792 -3.46437 
1 -7.07798 -5.24592 -5.13355 
1 -5.41318 -7.0218 -5.27481 
1 -5.35687 -5.23291 -3.51822 
1 -2.0084 -7.1214 -5.28848 
1 -3.64839 -7.02933 -3.57847 
1 -3.75532 -5.30931 -5.46334 
1 -2.02858 -5.3332 -3.63759 
2 -0.140311 -5.23726 -5.35758 
1 -0.0838101 -7.02199 -3.65282 
2 1.81215 -7.18484 -5.30791 
1 3.68864 -6.97372 -3.63355 
1 3.67605 -5.35592 -5.35537 
1 1.77073 -5.29587 -3.64242 
1 7.09515 -7.05959 -3.55545 
1 5.34019 -7.07992 -5.45356 
1 7.03225 -5.30207 -5.42596 
1 5.49695 -5.30582 -3.55872 
1 10.8012 -6.91737 -3.76363 
1 10.7456 -5.09261 -5.42154 
2 8.79533 -6.93235 -5.51082 
2 8.88174 -5.36865 -3.64218 
1 12.5141 -5.16058 -3.56488 
1 -14.2335 -3.50722 -3.55356 
1 -12.6365 -3.4918 -5.37614 
2 -12.7045 -1.62724 -3.74016 
1 -10.7377 -1.74929 -5.28318 
2 -10.9854 -3.47823 -3.49386 
1 -8.76691 -3.49335 -5.25965 
2 -8.89575 -1.84224 -3.36997 
2 -8.97352 -0.0832441 -5.33763 
1 -10.7357 -0.156061 -3.45103 
2 -6.98312 -1.85792 -5.26653 
1 -7.08755 -3.51953 -3.39902 
1 -5.2709 -3.44868 -5.16411 
1 -5.25159 -1.76784 -3.41462 
2 -7.11375 0.0753423 -3.49071 
1 -3.68766 -1.67115 -5.33341 
1 -1.96325 -3.47643 -5.32393 
1 -3.61531 -3.53253 -3.62498 
1 -1.82132 -1.79804 -3.65569 
1 -0.0695931 -1.79796 -5.40563 
1 -0.103767 -0.0470772 -3.51898 
1 -1.90059 -0.125928 -5.32691 
1 -0.00073967 -3.53962 -3.58919 
1 1.91723 -3.49804 -5.3558 
1 3.73646 -1.85903 -5.50875 
1 3.6845 -3.5156 -3.60724 
2 1.84423 -1.8294 -3.68556 
1 1.64312 0.0207703 -5.39055 
1 7.02634 -1.81936 -5.36081 
1 7.09531 -3.56054 -3.57054 
1 5.43991 -3.4957 -5.39309 
1 5.34649 -1.72989 -3.64172 
1 10.6822 -1.71823 -5.32072 
1 10.5726 -3.53391 -3.55939 
1 8.92927 -3.46016 -5.35197 
1 8.79928 -1.72892 -3.60089 
1 12.2856 -1.66552 -3.27223 
1 8.93894 -0.0045783 -5.34662 
2 12.4962 -3.33949 -5.14725 
2 12.7725 -0.029941 -5.28279 
2 14.1117 -3.19844 -3.11703 
2 14.3604 -0.254475 -3.50529 
2 -7.26621 -12.493 1.4171 
1 -1.88799 -14.2229 -1.7597 
1 -3.61423 -14.0974 0.303615 
1 -1.3948 -14.1366 1.36857 
1 -3.65211 -12.4771 -1.74087 
1 2.24847 -14.4467 -1.80298 
1 0.198632 -14.3769 -0.466541 
1 3.50884 -14.3451 0.288389 
2 1.44258 -14.147 1.72814 
1 5.25865 -13.9114 -1.62261 
1 6.98811 -12.405 1.93258 
2 7.12068 -12.1831 -1.63315 
1 -10.7277 -10.4981 0.0266103 
1 -10.9535 -8.93333 -1.95553 
1 -8.87987 -10.7109 -1.63739 
1 -8.93444 -8.74424 -0.0958357 
2 -10.7146 -8.83002 1.73619 
2 -9.09053 -10.788 1.6758 
1 -5.1475 -12.392 0.0346598 
2 -7.01364 -12.2873 -1.31883 
1 -7.09347 -10.4407 0.0976745 
2 -5.18208 -10.5806 -1.69315 
2 -5.30998 -10.6712 1.73052 
1 -7.1027 -8.76286 -1.8625 
1 -7.17793 -8.71532 1.6801 
1 -5.29263 -8.68045 -0.0289043 
1 -1.8897 -12.3704 -0.0598874 
1 -3.44186 -12.2968 1.7753 
1 -3.44481 -10.5252 0.050421 
1 -1.84498 -10.6128 -1.6736 
1 -1.73214 -10.5351 1.67983 
1 -3.5644 -8.72079 -1.65511 
1 -3.53508 -8.75758 1.80953 
1 -1.68595 -8.78822 -0.0907192 
1 0.0416423 -8.87525 -1.99443 
1 0.121268 -10.5104 -0.0529007 
2 -0.0411851 -12.3732 -1.75326 
1 3.56414 -12.3993 1.77537 
2 1.89496 -12.4763 0.0129799 
1 -0.0408455 -8.87409 1.75452 
1 -0.0914082 -12.157 1.62624 
1 3.52685 -12.3952 -1.78115 
1 3.53953 -10.58 0.0212618 
1 1.82532 -10.6486 -1.89303 
1 1.76232 -10.6872 1.70831 
1 3.59399 -8.7249 -1.82444 
1 3.44342 -8.83183 1.82089 
1 1.85733 -8.90994 -0.0675379 
1 5.23616 -12.3355 0.135722 
1 6.94059 -10.5797 0.0141482 
1 5.2145 -10.5856 -1.77344 
1 5.1982 -10.6889 1.86655 
1 7.0558 -8.96324 -1.79134 
2 7.02653 -9.04424 1.9167 
1 5.25632 -8.93262 0.0406215 
1 9.01334 -11.8312 -0.0805622 
1 9.16835 -10.6614 -2.09403 
1 10.8466 -8.69524 -1.95158 
1 10.7183 -9.01103 1.71002 
2 8.90835 -9.13124 -0.0527542 
1 8.94945 -10.8564 2.03894 
1 -12.6343 -5.27534 0.0724706 
1 -12.5757 -7.0117 -1.7507 
2 -10.8685 -7.0571 0.0468795 
1 -10.7913 -5.15978 -1.70546 
1 -10.8846 -5.28716 1.75871 
1 -8.84773 -6.95811 -1.78605 
1 -8.93225 -7.03781 1.70829 
1 -8.93628 -5.30864 -0.105043 
1 -7.01837 -7.02891 -0.0142876 
1 -7.08719 -5.22873 -1.70032 
1 -5.38994 -7.04695 -1.7799 
2 -7.15733 -5.34118 1.8042 
1 -5.26499 -7.05116 1.75385 
1 -5.24676 -5.23729 0.0325597 
1 -3.52008 -6.98113 0.0442447 
1 -1.71425 -6.98393 -1.73998 
1 -1.76242 -7.1305 1.87445 
1 -3.61431 -5.2834 -1.72411 
1 -3.53251 -5.35401 1.78962 
2 -1.74069 -5.35792 0.123127 
1 0.060055 -5.26412 -1.79638 
1 0.0119135 -7.19334 -0.010655 
1 0.00238406 -5.24657 1.86644 
1 3.56372 -7.10758 0.0685028 
2 1.77837 -7.02785 -1.77918 
1 1.64805 -7.1409 1.74307 
2 3.67667 -5.27564 -1.75709 
1 3.52145 -5.37264 1.81329 
1 1.72543 -5.31447 0.127916 
1 7.05973 -7.15807 0.00897118 
1 5.39647 -7.11939 -1.61188 
1 7.1091 -5.34972 -1.72902 
1 5.31102 -7.06805 1.73432 
2 7.13932 -5.32237 1.7571 
1 5.35211 -5.30644 0.0458679 
1 10.6244 -7.23244 -0.11527 
1 10.6348 -5.39669 1.59849 
1 10.5705 -5.42658 -1.93279 
1 8.82797 -7.15691 -1.7161 
1 8.89993 -7.13056 1.56726 
1 8.90271 -5.38207 -0.077755 
1 12.6392 -7.08746 -1.94496 
2 12.4109 -5.39314 -0.203328 
1 12.3888 -7.17761 1.62494 
1 -14.3066 -3.55539 0.0696747 
2 -14.3751 -1.68972 -1.75966 
1 -14.4787 -1.7741 1.80862 
1 -12.5405 -3.49299 -1.62261 
1 -12.6095 -1.78581 0.103839 
1 -12.6102 -3.46326 1.93066 
1 -10.8166 -3.46575 0.0928538 
1 -10.8039 -1.76267 -1.63447 
1 -10.8444 -1.84188 1.86469 
1 -8.9368 -3.57347 -1.62701 
2 -9.10097 -3.54563 1.75398 
1 -9.04467 -1.77488 0.0889859 
1 -10.7361 -0.0187561 0.023306 
1 -8.96528 -0.127724 -1.56474 
1 -7.13352 -3.63242 0.103729 
1 -7.0778 -1.83615 -1.67667 
1 -7.25129 -1.70248 1.7962 
1 -5.15358 -3.51589 -1.70065 
2 -5.31487 -3.46175 1.82946 
2 -5.24457 -1.81713 -0.0107178 
1 -7.20346 -0.0371561 -0.0434566 
1 -3.53914 -3.48015 0.0302954 
1 -3.41839 -1.70396 -1.78515 
2 -1.82986 -3.58492 -1.88922 
2 -3.40015 -1.68444 1.92914 
1 -1.76353 -3.46814 1.80997 
1 -1.75513 -1.69809 0.0452236 
1 -0.0376582 -1.77842 1.90488 
1 -0.0479457 -1.72992 -1.78083 
1 0.0116747 -3.64479 0.0788877 
2 1.78674 -0.09791 1.8617 
2 3.59805 -3.48266 0.131908 
2 1.86916 -3.53553 -1.78013 
1 3.61681 -1.74265 -1.84347 
1 1.81196 -3.47332 1.84155 
1 3.62281 -1.70681 1.98771 
1 1.69019 -1.82526 0.164888 
1 1.69793 -0.0803014 -1.85238 
1 -0.162591 -0.0585301 0.129353 
2 3.63066 -0.093537 -0.00748495 
1 7.08486 -3.56745 -0.0830151 
1 7.04831 -1.86662 -1.78166 
1 7.1508 -1.89334 1.76964 
1 5.31725 -3.43178 -1.86783 
1 5.41089 -3.58699 1.85966 
2 5.52551 -1.71332 0.0163724 
1 5.28818 0.0383373 -1.88902 
1 10.6448 -3.59459 0.00176994 
1 10.68 -1.92731 1.71793 
1 10.5602 -1.8779 -1.72478 
1 8.85977 -3.56675 -1.73885 
1 8.94333 -3.60825 1.66725 
2 8.92183 -1.77222 0.0179853 
1 12.1938 -3.63988 -1.79953 
1 12.4799 -1.91533 0.0623989 
1 10.5894 0.0270128 0.112416 
1 8.93283 -0.0200908 -1.82873 
1 12.3334 -0.120698 1.75345 
2 12.5339 -3.75247 1.65994 
2 14.132 -3.59171 -0.442378 
1 14.4515 -1.31358 -1.3753 
1 14.3886 -1.85882 1.50182 
2 12.3004 -0.114263 -1.63903 
2 -5.47057 -12.7202 3.23371 
2 -3.17984 -14.1715 3.07813 
1 -0.323069 -14.1767 3.47441 
2 -3.28392 -12.5582 5.15957 
1 3.37198 -14.2435 3.23689 
1 3.26651 -12.5385 5.28369 
1 5.25315 -12.4801 3.72575 
1 -10.8235 -10.6608 3.58508 
1 -10.6705 -8.85931 5.26144 
2 -8.97326 -8.89146 3.49493 
2 -8.86856 -10.7779 5.19906 
1 -7.11163 -10.7828 3.50224 
1 -5.44557 -11.0434 5.36137 
1 -7.19311 -8.97421 5.48055 
2 -5.44576 -8.80181 3.58016 
1 -1.58469 -12.1534 3.35092 
1 -1.67965 -10.6252 5.27035 
1 -3.63755 -10.7501 3.5644 
2 -3.68713 -9.11704 5.36576 
1 -1.89523 -8.93501 3.57801 
1 0.0289072 -10.4823 3.53921 
1 1.60612 -12.4741 3.42003 
2 -0.118628 -12.586 5.29863 
1 -0.123062 -8.77241 5.3989 
1 1.68771 -10.6294 5.33021 
2 3.41255 -10.6774 3.60444 
1 3.53226 -8.79405 5.37048 
1 1.78149 -8.77277 3.51676 
1 7.2326 -11.0116 3.93593 
1 5.34394 -10.8931 5.59736 
2 7.23421 -8.99413 5.4161 
2 5.31711 -8.88774 3.66952 
1 9.30497 -10.4489 5.22195 
2 8.98497 -8.64398 3.50332 
2 10.8333 -8.42717 5.313 
1 -12.6367 -5.23341 3.4167 
1 -10.7676 -7.08015 3.51066 
1 -10.7015 -5.49364 5.36669 
1 -8.78974 -7.18385 5.33824 
1 -9.02984 -5.34966 3.58128 
1 -7.23937 -7.01401 3.45947 
1 -7.26978 -5.37847 5.30091 
1 -5.44633 -7.2597 5.4712 
2 -5.25294 -5.36802 3.69952 
1 -1.93168 -7.15987 5.29043 
1 -3.60876 -7.17042 3.59076 
1 -3.53185 -5.54303 5.42894 
2 -1.85159 -5.2804 3.47694 
1 -0.10724 -7.15306 3.6143 
2 0.0392345 -5.37244 5.39191 
1 1.76087 -7.14303 5.32512 
1 3.57782 -7.06683 3.54384 
1 3.49724 -5.44384 5.35786 
1 1.86664 -5.3299 3.56961 
1 7.10724 -6.97052 3.59191 
1 5.33157 -7.2089 5.38265 
2 7.23022 -5.27442 5.3802 
2 5.25786 -5.29797 3.62675 
1 10.7212 -7.03473 3.38857 
1 10.7899 -5.50361 5.22399 
1 8.9168 -7.07258 5.53544 
1 8.98891 -5.40511 3.52297 
2 12.4503 -5.47294 3.44822 
1 -14.2236 -3.20983 3.82171 
1 -12.5474 -3.62574 5.41131 
1 -12.5172 -0.0198376 5.55251 
1 -12.4341 -1.61548 3.73068 
1 -10.7295 -1.81267 5.48347 
1 -10.8137 -3.54062 3.72812 
1 -9.05459 -3.67724 5.57784 
2 -9.01091 -1.71426 3.66346 
1 -9.01277 0.0915806 5.50582 
1 -7.2234 -1.75795 5.60079 
2 -7.25496 -3.41778 3.77474 
1 -5.36775 -3.66479 5.43313 
1 -5.42947 -1.61947 3.60502 
2 -3.64244 -1.65188 5.3913 
2 -1.83767 -3.60043 5.37156 
1 -3.58213 -3.47927 3.52753 
1 -1.67916 -1.76546 3.71457 
1 -3.7095 0.146224 3.62075 
1 -0.00259585 0.0791621 3.58196 
1 0.0137458 -1.69565 5.27861 
1 0.223149 -3.55734 3.55654 
1 1.79845 -3.57484 5.34848 
1 3.48931 -1.73457 5.1617 
1 3.51002 -3.54384 3.57059 
1 1.71199 -1.71607 3.61191 
1 5.29507 0.00409739 5.28128 
2 7.04125 -0.0146657 3.60263 
1 7.1156 -1.8177 5.37739 
1 7.20468 -3.44971 3.56704 
1 5.34593 -3.45761 5.30138 
1 5.41025 -1.83524 3.53357 
2 10.8237 -1.91642 5.29803 
1 10.7219 -3.66235 3.39658 
2 8.92836 -3.56999 5.30096 
1 8.93622 -1.8107 3.48559 
2 12.6155 -1.87555 3.4256 
1 8.99208 -0.0803613 5.32926 
2 14.2413 0.124481 3.23791 
1 12.5846 -3.8012 5.27074 
1 14.4394 -3.61049 3.44685 
1 14.257 -1.82664 5.23119 
1 -1.8561 -12.5644 7.20265 
1 -8.87846 -9.24465 7.13504 
1 -5.37243 -9.21739 10.5892 
1 -5.24811 -10.9113 8.90915 
1 -7.08439 -10.9531 7.11561 
2 -7.10295 -9.15459 8.80177 
1 -5.35287 -9.13938 7.04245 
2 -1.93794 -8.93317 10.6624 
1 -1.96145 -10.7025 8.77355 
1 -3.6419 -10.8098 7.07754 
1 -3.70702 -8.98268 8.73876 
1 -1.88779 -8.9623 7.17045 
1 -0.0849827 -10.7565 7.05894 
1 1.61636 -12.4131 7.12573 
1 -0.191378 -8.91755 8.97588 
1 1.70964 -10.5812 8.94999 
1 3.36047 -10.5374 6.9522 
1 3.54433 -8.91281 8.72881 
1 1.59545 -8.94449 7.11906 
1 1.69878 -9.0338 10.7112 
1 7.3642 -10.8323 6.98203 
1 5.29109 -9.12568 10.2149 
1 5.23915 -10.8097 8.31145 
1 7.22839 -9.02462 8.52589 
1 5.33768 -8.88167 7.03274 
1 9.18424 -8.94734 7.16734 
2 -10.4803 -7.26859 7.07113 
1 -10.3847 -5.63789 8.94885 
1 -8.8594 -7.25296 8.82085 
1 -8.78454 -5.44225 7.18489 
1 -8.79504 -5.53338 10.6586 
1 -7.00163 -7.41161 10.553 
1 -7.14036 -5.51804 8.97581 
1 -5.36986 -7.34647 8.82959 
1 -7.1862 -7.26414 7.09354 
1 -5.45766 -5.446 7.04143 
1 -5.71737 -5.31597 10.932 
2 -3.89895 -7.27164 10.6763 
1 -1.93784 -5.43408 10.624 
1 -1.97016 -7.13368 8.90244 
2 -3.82301 -5.43027 8.98032 
1 -3.56781 -7.15017 7.17328 
1 -1.79594 -5.40046 7.19864 
2 -0.0917426 -5.41948 9.06962 
1 -0.107115 -7.17829 7.13648 
1 -0.140302 -7.28514 10.5784 
1 3.58206 -7.34188 10.6882 
1 1.94225 -5.32508 10.4448 
1 1.79471 -7.25577 8.98008 
1 3.78628 -5.57644 8.93344 
1 3.48771 -7.16408 7.09516 
2 1.75214 -5.43919 7.20212 
1 7.09338 -7.31662 10.3796 
1 5.54719 -5.53153 10.5707 
1 5.41634 -7.26806 8.68946 
1 7.32144 -5.34119 8.75644 
1 7.26833 -7.18203 7.1732 
2 5.40143 -5.44294 7.00608 
1 8.72107 -5.48467 10.566 
1 10.5985 -4.97647 9.07017 
1 10.9587 -6.97181 7.23683 
1 8.96217 -7.11005 8.77626 
1 9.04537 -5.30647 7.10845 
2 -12.1031 -1.7013 7.39893 
1 -9.04488 -1.63694 10.5869 
1 -10.989 -3.00652 9.60653 
2 -10.7319 -3.76717 7.24096 
1 -8.76059 -3.78963 8.94705 
2 -9.12928 -1.88009 7.3077 
1 -11.1457 -0.542733 9.5328 
1 -7.25992 0.125838 10.7576 
1 -7.22573 -3.38323 10.8317 
1 -5.28706 -1.59146 10.785 
1 -7.27889 -1.72446 8.91203 
2 -5.64214 -3.51596 9.06584 
1 -7.12323 -3.6289 7.10612 
1 -5.44465 -1.74394 7.16736 
1 -5.5391 0.0869992 9.04885 
1 -3.7066 -3.5469 10.656 
1 -1.81561 -1.84882 10.8199 
1 -3.61934 -1.67998 8.97723 
2 -1.99736 -3.52432 9.00933 
1 -3.74412 -3.54093 7.17416 
1 -1.85896 -1.73001 7.21103 
1 0.0706882 -3.50672 10.6719 
1 -0.187735 -1.70915 9.08759 
2 -0.0580699 -3.4082 7.12801 
1 1.73873 -1.69664 7.06846 
2 3.73633 -3.51656 7.15905 
1 1.88539 -1.78784 10.5863 
1 1.74444 -3.47593 8.82599 
1 3.61937 -1.70628 8.82007 
1 3.6375 -3.60642 10.4198 
1 5.41364 -0.125745 8.91614 
1 7.01758 -3.33589 7.16318 
1 7.2322 -0.082483 10.751 
1 5.38989 -1.58995 7.07796 
1 5.26326 -1.82051 10.6291 
1 7.18933 -3.67661 10.6732 
1 5.5114 -3.67334 8.99158 
1 7.1794 -1.76271 9.05441 
1 7.24948 -0.171688 7.13202 
2 9.18379 -0.0835962 9.02366 
1 10.8005 -3.75813 7.11505 
1 9.06907 -1.96472 10.8121 
1 8.99528 -1.69903 7.17864 
1 8.71576 -3.5714 8.7884 
2 10.7737 -2.29218 8.93168 
2 10.745 -0.067085 6.97237 
2 12.6551 -1.88666 7.11727 
1 -0.0836722 -8.77149 12.472 
1 -3.63955 -5.35661 12.4082 
1 -1.97507 -7.18995 12.4403 
1 0.0102296 -6.71041 13.8934 
1 3.79641 -5.56481 12.3029 
1 1.94618 -5.18679 13.9174 
1 -0.109987 -5.42292 12.0206 
2 1.76561 -6.93834 12.1826 
1 -5.40266 0.0952319 12.5593 
1 -7.09352 -1.64338 12.4492 
1 -5.42799 -3.34122 12.5027 
1 0.0498719 -1.72131 12.2824 
1 -3.38429 0.0492508 14.296 
1 -1.74211 -1.78448 14.1049 
1 -2.02058 -3.648 12.3655 
1 -3.61986 -1.75708 12.5695 
2 0.00136746 -3.63079 13.6886 
1 -1.65529 -0.0344606 12.4796 
1 1.81574 -1.96141 14.2415 
1 1.87522 -3.68137 12.0913 
1 3.47614 -1.89356 12.4135 
1 1.78492 -0.0156835 12.4829 
1 3.55031 -0.167062 14.153 
1 5.3397 -0.213811 12.5128 
1 7.09271 -1.88042 12.2723 
2 5.27297 -3.69489 12.1497 
1 -7.05363 1.64243 -12.4527 
1 -5.5254 3.68939 -12.5577 
1 -5.32514 -0.0749417 -12.5336 
2 -1.94212 1.69674 -14.4737 
2 -3.65866 1.83812 -12.6084 
1 -1.91306 3.63253 -12.5889 
2 -0.018777 1.91939 -12.5068 
1 -0.129285 3.69078 -14.4427 
1 3.48511 3.60339 -14.2671 
1 3.39267 1.93553 -12.4476 
2 1.72633 3.71046 -12.4921 
1 1.70945 1.79849 -14.3962 
1 5.10723 1.78345 -14.3651 
1 7.12389 1.95319 -12.7709 
1 5.26819 3.53405 -12.6337 
1 -1.76433 7.12959 -12.3507 
1 -3.59399 5.39465 -12.613 
1 -0.0107287 5.3506 -12.5674 
1 1.55595 7.29462 -12.3401 
1 3.55585 5.54452 -12.5954 
1 -12.6014 1.89708 -7.14908 
1 -10.7052 1.79644 -8.9242 
1 -8.98968 1.64487 -10.7519 
2 -9.03107 3.71235 -9.05947 
2 -8.87656 1.94046 -7.10172 
1 -10.8439 3.58795 -7.03344 
1 -10.7689 0.0982746 -7.16672 
1 -8.93238 -0.00915927 -8.83819 
1 -10.7719 0.00465697 -10.5039 
1 -7.25184 3.54976 -10.8145 
2 -5.28136 1.81651 -10.7168 
2 -7.18876 1.86009 -8.987 
1 -5.44375 3.61493 -8.82518 
1 -7.18165 3.76007 -7.07999 
2 -5.37843 1.81688 -7.08257 
1 -7.16265 0.0740941 -7.16475 
1 -5.29473 -0.00588371 -8.91388 
1 -7.14003 -0.0626547 -10.6325 
1 -3.6041 3.67491 -10.7926 
1 -1.8125 1.86896 -10.7309 
1 -3.61204 1.67242 -8.93546 
2 -1.84053 3.47402 -8.93267 
2 -3.52616 3.67492 -6.98174 
1 -1.76153 1.79093 -6.91065 
1 -0.109411 3.68678 -7.0077 
1 0.0407695 1.84894 -8.91944 
1 -0.0599241 3.70041 -10.6379 
1 -3.58826 -0.00465279 -7.11337 
1 -3.46088 0.0186802 -10.6857 
1 -0.150628 0.0592587 -10.5893 
1 3.64711 3.65743 -10.6389 
1 1.7438 1.85361 -10.6843 
1 3.54147 1.95306 -8.83747 
2 1.73196 3.65142 -8.92448 
1 3.50663 3.67793 -7.13557 
2 1.60736 1.89161 -7.05116 
1 3.48924 0.0645967 -6.98603 
2 7.09959 3.58672 -10.7199 
1 5.22213 1.89996 -10.6519 
1 7.04394 1.82445 -8.8269 
1 5.28695 3.5701 -8.80838 
1 7.05075 3.37208 -7.09538 
1 5.20599 1.86122 -7.07936 
2 7.15222 0.000550846 -7.12049 
2 5.33259 0.105817 -8.87037 
1 9.10925 2.19957 -10.9759 
2 10.74 1.91682 -8.86904 
1 9.04139 3.56987 -8.90938 
1 8.87761 1.75223 -7.19504 
1 10.7119 3.63811 -7.00331 
2 10.8425 0.00817627 -7.20809 
1 10.5384 0.110796 -10.3905 
1 8.9114 -0.0549657 -8.79384 
2 12.5676 1.89843 -6.97633 
1 -10.8505 5.24202 -8.84011 
1 -10.9883 7.03162 -7.0925 
1 -9.06001 7.1267 -8.85953 
1 -9.0772 5.40612 -7.1318 
1 -8.85858 5.45659 -10.7558 
2 -5.58992 5.18056 -10.6064 
1 -6.97478 7.12442 -10.6781 
1 -7.23888 5.38383 -8.88401 
1 -5.51302 7.16748 -8.86758 
2 -7.34468 7.13555 -7.12909 
1 -5.47942 5.50035 -7.07966 
2 -3.6634 7.11559 -10.7406 
1 -1.85441 5.29229 -10.8532 
1 -1.93907 7.14278 -8.92418 
2 -3.72069 5.39751 -8.94491 
1 -3.67922 7.09904 -7.02361 
1 -1.89361 5.50029 -7.03371 
2 -0.135633 5.45459 -8.8015 
1 -0.0508727 7.25153 -6.99307 
1 -0.220667 7.18829 -10.6446 
1 3.49769 7.15085 -10.7399 
1 1.64928 5.43389 -10.7797 
2 1.63943 7.26825 -8.91771 
1 3.47841 5.38223 -8.79284 
1 3.49115 7.13411 -7.139 
1 1.75993 5.42972 -7.09512 
1 7.19939 6.82984 -10.4454 
1 5.27145 5.41421 -10.6674 
1 7.04487 5.10282 -8.78917 
1 5.35349 6.94491 -8.85269 
1 7.20674 7.07355 -7.20566 
1 5.29066 5.4024 -7.01979 
1 9.018 5.10116 -10.5872 
1 10.8196 5.20261 -8.76713 
1 9.05045 6.87531 -8.90876 
1 8.92176 5.3019 -7.12652 
2 10.622 7.13311 -6.9904 
1 -9.25973 8.85604 -6.95823 
1 -5.3274 8.88302 -10.6811 
1 -5.37232 10.4887 -8.77267 
1 -7.55386 8.98802 -8.93895 
1 -5.4007 8.83655 -6.98909 
1 -7.14977 10.4352 -7.113 
2 -2.12133 9.03867 -10.4952 
2 -2.00779 10.7848 -8.75535 
1 -3.623 10.778 -7.00918 
1 -3.70259 8.82587 -8.72267 
1 -1.90987 8.93822 -7.09493 
1 -0.174044 10.6208 -7.00597 
1 -0.245449 12.4462 -8.66069 
1 -0.26283 8.96595 -8.89292 
1 1.59188 9.07779 -10.529 
1 1.54826 10.7201 -8.89245 
1 3.53592 10.8319 -7.39317 
1 3.44006 8.98195 -9.00252 
1 1.73456 9.124 -7.12036 
1 5.46333 8.72999 -10.4528 
1 5.33765 10.6566 -8.90339 
1 7.18082 10.6361 -7.30808 
1 7.1742 8.78937 -8.82521 
1 5.21605 8.82502 -7.34825 
1 8.9961 8.80392 -7.22897 
1 -1.98855 12.4447 -6.84708 
2 1.58297 12.4514 -7.17588 
2 -14.3192 3.13915 -3.26505 
1 -12.6435 0.136345 -5.36716 
2 -12.6609 3.45537 -5.15037 
1 -12.3134 1.71657 -3.34115 
1 -14.308 0.267796 -3.47846 
2 -10.8083 1.79162 -5.21733 
1 -10.7901 3.67208 -3.50122 
1 -8.96741 3.72927 -5.34685 
2 -9.0228 1.79999 -3.44002 
1 -7.14063 1.89973 -5.38572 
2 -7.0825 3.6495 -3.58586 
1 -5.40356 3.73861 -5.3381 
1 -5.32566 1.8476 -3.61754 
1 -5.39016 0.100269 -5.45364 
1 -3.5621 1.87058 -5.24242 
1 -1.71513 3.65868 -5.19624 
1 -3.53125 3.63494 -3.5987 
1 -1.74932 1.77732 -3.55678 
1 -0.00533122 3.71252 -3.4888 
1 0.142154 1.85299 -5.11299 
1 -3.62308 -0.0187455 -3.53774 
1 3.50784 1.83484 -5.29764 
2 1.77511 3.78122 -5.28261 
1 3.55938 3.62768 -3.50016 
2 1.75796 1.78207 -3.46213 
1 3.55167 0.0253468 -3.59242 
1 7.11068 1.78722 -5.29955 
1 7.07309 3.51531 -3.49258 
1 5.25846 3.63386 -5.27282 
1 5.23062 1.85807 -3.61997 
1 7.11706 -0.0138162 -3.56307 
1 5.28607 0.0658015 -5.31565 
1 10.7387 1.64567 -5.22146 
1 10.7544 3.55416 -3.59208 
2 8.95026 3.53868 -5.28988 
1 8.89733 1.78766 -3.65164 
1 12.4368 1.50417 -3.47004 
1 12.4563 3.55576 -5.17488 
1 10.6331 -0.0363772 -3.60342 
1 14.2718 3.28294 -3.48592 
1 -12.6797 5.24433 -3.38269 
1 -10.8019 6.87554 -3.47728 
1 -10.8663 5.33459 -5.27781 
2 -9.09591 7.19081 -5.22122 
1 -8.99764 5.31515 -3.47869 
1 -7.20445 7.02665 -3.55263 
1 -7.21441 5.45163 -5.33176 
1 -5.45749 7.10166 -5.16123 
1 -5.41834 5.33791 -3.54558 
1 -1.95114 7.27369 -5.2885 
1 -3.62656 7.12335 -3.42709 
1 -3.71102 5.48554 -5.18679 
1 -1.84209 5.46142 -3.53113 
2 -0.0650862 7.19982 -3.61425 
1 -0.228023 5.44194 -5.38345 
1 1.76769 7.17274 -5.34774 
2 3.53346 7.06844 -3.74843 
1 3.61809 5.41937 -5.38736 
1 1.74641 5.39949 -3.61459 
1 7.1373 6.97714 -3.68002 
1 7.21984 5.20076 -5.43023 
2 5.50122 7.14163 -5.45133 
1 5.40166 5.32664 -3.55465 
1 10.7066 7.0893 -3.64348 
1 10.7799 5.31009 -5.27903 
1 8.88975 7.02248 -5.33457 
1 8.96268 5.38904 -3.61107 
2 12.6341 5.42503 -3.57097 
1 -10.9532 8.80744 -5.01046 
1 -9.12252 10.6395 -5.14259 
1 -8.87355 8.82454 -3.39406 
1 -10.7301 10.6353 -3.39733 
1 -7.28834 10.7664 -3.58686 
1 -5.64103 10.649 -5.24394 
1 -7.31391 8.89535 -5.24617 
1 -5.67394 8.91859 -3.50107 
1 -5.47486 12.5752 -3.43843 
1 -1.87864 10.714 -5.23742 
1 -3.8546 10.7084 -3.5175 
2 -3.69109 8.89564 -5.22425 
1 -1.83843 8.99386 -3.50152 
1 -0.000455423 8.99462 -5.29261 
1 -1.78908 12.4592 -3.49892 
1 -3.631 12.4894 -5.1156 
1 -0.112696 10.692 -3.55895 
2 1.64664 10.802 -5.2487 
1 3.65968 10.7141 -3.56878 
1 3.47758 9.10409 -5.5382 
1 1.83816 8.86853 -3.58128 
1 1.76859 12.3995 -3.50891 
1 7.31037 10.8322 -3.66735 
2 5.41151 10.6546 -5.56491 
1 7.30539 8.86053 -5.53276 
2 5.39201 8.93072 -3.66737 
1 5.50008 12.532 -3.62874 
1 10.7939 8.86342 -5.15927 
1 9.01511 10.4518 -5.42523 
1 8.77883 8.86356 -3.62891 
1 -0.270016 12.6502 -5.30055 
1 -3.62953 14.214 -3.3232 
1 -0.00528143 14.3361 -3.62854 
1 3.6208 12.3808 -5.4843 
2 1.73939 13.9632 -5.38454 
1 3.55725 14.0249 -3.79679 
1 -14.3314 3.51454 -0.0815234 
1 -14.3686 1.61781 -1.50638 
1 -14.4955 1.80801 1.91496 
1 -12.5402 0.00578884 -1.67166 
2 -12.6435 3.50967 1.78656 
1 -12.534 1.75715 0.0897554 
1 -14.6447 0.0171436 0.175986 
2 -12.5728 0.00984352 1.90263 
1 -12.4464 3.52443 -1.76079 
2 -10.772 3.55538 0.0297305 
1 -10.6646 1.65084 -1.66594 
1 -10.812 1.7741 1.76183 
1 -8.97134 3.55733 -1.67946 
1 -8.97084 3.50404 1.90641 
1 -8.92037 1.73255 0.0561149 
2 -9.01784 -0.0212022 1.8902 
1 -5.28488 0.0479707 -1.77165 
2 -5.41634 0.01179 1.71392 
1 -7.15812 3.48538 -0.0926827 
1 -7.1055 1.72835 -1.84245 
1 -7.32861 1.89853 1.88487 
1 -5.36229 3.49072 -1.86772 
1 -5.58963 3.53212 1.79585 
1 -5.44574 1.75984 -0.00271903 
1 -1.76882 0.211234 1.89535 
2 -3.72856 3.53671 0.0130122 
1 -3.4729 1.79272 -1.81353 
2 -1.68195 3.65166 -1.80835 
1 -3.68105 1.85019 1.91132 
1 -1.80856 3.57682 1.81011 
1 -1.81047 1.88501 -0.0539472 
1 -0.00372808 1.72126 -1.64985 
1 -3.54961 0.127989 0.0768651 
1 -0.105948 3.6921 0.127652 
1 -1.76691 0.0307064 -1.80126 
1 -0.109333 1.81725 1.77893 
2 3.61381 3.61782 0.0013562 
1 3.53767 1.81179 -1.85599 
2 1.68444 3.65882 -1.74698 
1 3.607 1.74844 1.88184 
1 1.75804 3.59133 1.85001 
2 1.76951 1.81293 0.108127 
1 7.26647 3.57888 -0.0794586 
1 7.05 1.72499 -1.87004 
1 7.16653 1.76969 1.61743 
1 5.25611 3.6398 -1.87086 
1 5.50348 3.5962 1.79519 
2 5.36318 1.84045 -0.0314273 
1 7.04104 0.00180584 -0.173779 
1 5.46329 0.0860659 1.84736 
1 10.6614 3.52494 -0.0716963 
1 10.6535 1.93013 1.77282 
2 10.6569 1.76899 -1.87359 
1 8.81259 3.52898 -1.87549 
1 8.73069 3.55194 1.75824 
1 8.89004 1.77356 0.0318312 
2 8.86498 0.0195651 1.70101 
1 12.4867 3.55683 -1.81837 
1 12.5008 3.72324 1.56843 
1 12.4583 1.79248 0.078688 
1 14.3707 3.53574 -0.20725 
2 14.2098 1.48802 -1.65192 
1 14.3923 2.25207 1.71398 
1 14.3082 0.184687 0.506162 
1 -12.6058 5.2841 0.106221 
1 -12.5874 6.9287 -1.66918 
1 -12.4661 7.0151 1.85781 
1 -10.8207 7.0315 -0.0186707 
1 -10.7942 5.296 -1.79025 
1 -10.8049 5.20895 1.87912 
1 -8.89411 7.02151 -1.7089 
2 -9.09425 7.03293 1.78906 
1 -8.9661 5.29264 -0.0174471 
1 -7.24671 7.07306 0.0833422 
1 -7.1281 5.25222 -1.65173 
2 -5.5325 7.14439 -1.71174 
1 -7.23812 5.29259 1.77504 
1 -5.39134 6.98323 1.72918 
1 -5.47534 5.25939 0.0711124 
1 -3.60338 7.01955 0.0217645 
1 -1.93465 7.20075 -1.76225 
1 -1.77715 7.23275 1.77168 
1 -3.71048 5.31486 -1.74451 
1 -3.57553 5.40604 1.91575 
2 -1.86637 5.43818 0.119615 
1 0.0111864 7.10529 0.109276 
1 -0.130473 5.51057 -1.80725 
1 -0.0206648 5.34803 1.90382 
1 3.51306 7.1948 -0.121155 
1 1.64526 7.03691 -1.80165 
2 1.76281 7.11496 1.74033 
1 3.54668 5.37367 -1.83207 
2 3.62256 5.2654 1.77998 
1 1.7566 5.37046 0.0803662 
1 7.21413 7.0409 -0.00495273 
1 7.07676 5.35608 -1.82791 
2 5.2702 7.1122 -1.77473 
1 7.15234 5.3486 1.78499 
1 5.32881 7.02632 1.8069 
1 5.42362 5.40407 0.00335344 
1 10.6479 6.86997 -0.190995 
1 10.6119 5.15593 1.67235 
1 10.6937 5.30806 -2.01084 
1 8.90145 7.04558 -1.85699 
2 9.19949 7.43498 1.81279 
1 8.96484 5.30372 -0.119142 
2 12.0769 7.34574 1.77036 
1 12.3417 7.20698 -1.98171 
1 12.5791 5.44684 -0.217518 
2 -9.01667 10.4269 -1.61954 
1 -8.8934 10.6686 1.85865 
2 -10.8079 8.63749 -1.81207 
1 -10.7921 8.90371 1.92097 
1 -8.94246 8.79438 0.0943768 
1 -7.24727 10.5859 0.141097 
1 -5.39424 10.7879 1.96568 
1 -5.53657 10.6922 -1.69631 
1 -7.23862 8.77384 -1.6669 
1 -7.03081 8.83633 1.79161 
1 -5.40401 8.96498 0.123838 
1 -7.05805 12.41 1.98778 
2 -5.47345 12.3616 0.0403176 
1 -3.55962 10.6511 -0.00258223 
2 -1.76435 10.747 1.81283 
1 -1.8766 10.62 -1.65926 
1 -3.83907 8.93989 -1.81866 
2 -3.63997 8.9563 1.80815 
1 -1.88446 8.86182 -0.0368993 
1 0.122554 12.5461 1.70804 
1 -0.00374163 10.8015 0.0399637 
1 -3.68436 12.3905 -1.78172 
1 -1.7286 12.4505 -0.160896 
2 -0.0375615 8.93377 -1.72333 
1 -0.0947101 8.96451 1.76891 
1 3.57989 10.7767 -0.0570492 
1 1.84805 10.7392 1.76372 
1 1.8306 10.6916 -1.80299 
1 3.55553 8.8562 -1.76726 
1 3.58997 8.84447 1.63678 
1 1.72601 8.95886 -0.0586684 
1 -0.0543728 12.4085 -1.89834 
1 7.29383 10.6903 -0.096005 
1 5.30263 10.6758 1.73725 
2 5.45064 10.666 -1.77562 
1 7.17256 8.98989 -1.8333 
1 7.22008 8.76792 1.75715 
2 5.44425 8.90123 0.110726 
2 7.32989 12.2889 1.68195 