ITEM: TIMESTEP
1060000
ITEM: NUMBER OF ATOMS
1289
ITEM: BOX BOUNDS pp pp pp
-100 100
-100 100
-100 100
ITEM: ATOMS type x y z 
1 -1.93819 -6.92575 -12.2756 
1 -3.88583 -5.37135 -12.4681 
1 -0.142347 -5.27166 -12.4754 
1 1.60693 -6.8778 -12.4102 
1 3.42284 -5.3272 -12.8136 
1 -7.49425 -1.62701 -12.3267 
2 -5.71523 -3.47639 -12.4176 
2 -1.96617 -1.75456 -14.2453 
2 -3.99468 -1.78246 -12.4849 
1 -2.01171 -3.51328 -12.4737 
1 -0.203203 -1.85965 -12.5584 
1 -0.151792 -3.59171 -14.2443 
1 5.31081 -0.0519143 12.5678 
2 5.41434 -3.51203 12.4216 
2 3.58543 -2.91716 -14.2026 
1 1.60564 -3.44781 -12.6037 
1 3.68854 -1.60032 -12.2888 
1 1.5144 -1.73847 -14.3045 
1 7.26943 -1.66208 12.4944 
2 3.35481 -0.105828 -14.2669 
1 5.55292 -1.35204 -14.4139 
2 7.16638 -1.76201 -12.4779 
2 5.28497 -3.6138 -12.5249 
2 -0.0363875 -3.73477 14.009 
1 -1.45721 -12.4992 -6.89565 
1 -9.12525 -9.01773 -7.08762 
2 -5.36177 -10.5319 -8.71547 
1 -5.42237 -9.03818 -10.6378 
1 -7.18279 -10.6625 -6.91517 
1 -7.31417 -9.01532 -8.88406 
1 -5.41898 -8.96467 -6.94063 
1 -1.86466 -10.8657 -8.89937 
1 -1.80053 -8.85429 -10.8009 
1 -3.50263 -10.8984 -6.96554 
2 -3.49675 -8.93928 -8.97872 
1 -1.9735 -8.80041 -7.0472 
1 -0.114582 -8.75646 -8.89507 
1 -0.217308 -10.5228 -10.5162 
2 0.00260888 -10.5726 -7.12291 
1 1.59964 -12.3071 -7.13561 
2 1.71923 -10.55 -9.12232 
1 1.74381 -8.89586 -10.8984 
1 3.6013 -10.5162 -7.20783 
2 3.55875 -8.84736 -9.10008 
1 1.75165 -8.90239 -7.14214 
1 5.34514 -10.6319 -9.00202 
1 6.97877 -8.7409 -8.93153 
1 5.25732 -8.776 -7.07537 
1 7.10695 -10.4151 -7.06441 
1 5.4166 -8.67849 -10.7545 
1 8.74788 -8.85852 -7.07373 
1 -10.8053 -5.40773 -8.92689 
1 -8.87716 -5.45624 -10.6721 
1 -9.11071 -7.43771 -9.10969 
2 -8.95898 -5.20669 -7.1302 
2 -10.7462 -7.08846 -7.17594 
1 -7.19085 -7.32741 -10.6075 
1 -5.66479 -5.29431 -10.7181 
1 -7.27836 -5.36637 -8.91612 
1 -5.50191 -7.23062 -8.85297 
2 -7.32053 -7.19493 -7.17944 
1 -5.62774 -5.25512 -7.24098 
2 -3.84324 -7.13767 -10.7905 
1 -1.98499 -5.1902 -10.7811 
1 -2.00499 -7.05466 -9.09014 
1 -3.91809 -5.37127 -8.99384 
1 -3.75416 -7.08848 -7.21085 
2 -2.02125 -5.39593 -7.21369 
1 -0.038099 -7.09486 -10.7029 
2 -0.167391 -7.09827 -7.08538 
2 -0.113769 -5.29505 -9.06328 
2 3.54082 -6.99114 -10.8078 
1 1.74238 -5.10119 -10.8259 
1 1.69041 -7.1083 -8.9223 
1 3.59045 -5.22056 -8.90191 
1 3.57544 -7.09746 -7.21582 
2 1.77454 -5.28303 -7.17205 
1 7.11799 -6.88005 -10.5906 
1 5.30657 -5.34886 -10.8037 
1 5.22527 -7.03995 -8.83747 
1 6.98857 -5.25747 -8.74087 
1 7.07799 -7.00079 -7.08113 
1 5.26642 -5.27237 -7.11096 
1 8.84339 -5.18269 -10.6759 
1 10.587 -5.18907 -8.9808 
1 10.7174 -6.84102 -7.09602 
2 8.77713 -6.94848 -8.77368 
1 8.84903 -5.23535 -7.04708 
1 -12.5447 -1.75393 -7.15106 
1 -10.8295 -1.61625 -8.74719 
1 -9.07977 -1.681 -10.5723 
1 -10.9614 -3.61243 -7.08958 
1 -9.2337 -3.40462 -8.92261 
1 -9.17655 -1.76285 -7.10925 
1 -9.04812 0.100384 -8.86775 
1 -7.33175 -3.4662 -10.495 
1 -5.56768 -1.72046 -10.643 
1 -7.2927 -1.70715 -8.8057 
1 -5.3779 -3.40348 -8.89913 
1 -7.22303 -3.45949 -7.24305 
1 -5.56348 -1.69784 -7.18948 
1 -7.28643 0.124086 -10.6956 
1 -5.55897 0.0473511 -8.8935 
1 -3.84314 -3.50321 -10.7707 
1 -1.92258 -1.89687 -10.7693 
1 -3.67934 -1.69993 -8.9026 
2 -1.90771 -3.45196 -8.99894 
1 -3.75074 -3.57102 -7.11087 
1 -1.85014 -1.91978 -7.19767 
1 -0.0330049 -1.75541 -9.02232 
1 -0.0773568 -3.50956 -7.26048 
1 -3.72513 -0.167772 -10.6612 
1 -3.57837 -0.0829489 -7.16251 
1 -0.0660406 -3.52874 -10.8199 
1 3.57568 -3.61321 -10.8428 
1 1.76034 -2.02448 -10.7995 
1 1.73535 -3.45694 -8.96199 
2 3.64676 -1.86048 -9.02433 
1 3.57824 -3.49325 -7.18597 
1 1.67106 -1.78133 -7.11002 
1 0.0296854 -0.155678 14.3571 
1 0.123868 -1.84002 12.4732 
1 7.09016 -3.5571 -10.7145 
1 5.41645 -1.74684 -10.7147 
1 7.11812 -1.79313 -8.94687 
1 5.36693 -3.5061 -9.01248 
1 7.0314 -3.55993 -7.00181 
1 5.17768 -1.88545 -7.08092 
1 3.54231 -1.74116 12.4644 
1 9.05634 -1.86177 -10.7254 
1 10.8366 -3.57112 -7.03763 
1 8.83172 -3.53364 -8.83366 
2 8.86575 -1.83719 -7.06407 
2 10.6921 -1.84788 -8.94761 
1 12.4884 -1.6791 -7.15408 
1 1.76498 -3.5914 12.3063 
1 -5.36107 -12.4912 -3.49955 
1 -1.48069 -14.2101 -4.9204 
1 -3.52413 -12.6439 -5.20093 
1 -1.68071 -12.435 -3.37901 
1 0.307019 -12.6557 -5.21734 
2 0.35894 -14.3439 -3.2271 
1 5.05543 -12.5568 -3.61097 
1 -10.6616 -8.84581 -5.20139 
1 -8.83041 -10.6251 -5.12765 
2 -8.82714 -8.96964 -3.37125 
1 -7.11558 -10.7924 -3.33578 
1 -5.53782 -10.7456 -5.25499 
1 -7.08728 -8.9065 -5.2533 
1 -5.43969 -9.00914 -3.43057 
2 -1.82992 -10.7282 -5.29701 
1 -3.58168 -10.6752 -3.56632 
1 -3.70862 -8.97525 -5.22687 
2 -1.85202 -8.89651 -3.45274 
1 -0.0749108 -8.82645 -5.3377 
2 0.134388 -10.7364 -3.53653 
2 2.04501 -12.5332 -3.4336 
1 3.51721 -12.5029 -5.54332 
1 1.83474 -10.6363 -5.34121 
1 3.54434 -10.554 -3.55051 
1 3.55867 -8.97342 -5.33086 
1 1.73251 -8.81849 -3.44525 
2 7.06937 -10.643 -3.49333 
1 5.35133 -10.6324 -5.42114 
1 7.13771 -8.76264 -5.28144 
2 5.32192 -8.89037 -3.55073 
1 8.7736 -10.8108 -5.22018 
2 8.91279 -8.94233 -3.4289 
1 10.6496 -8.86848 -5.45164 
1 -12.6015 -5.34941 -3.51441 
1 -10.6617 -7.03591 -3.49905 
1 -10.8461 -5.38925 -5.36253 
2 -8.8464 -7.00442 -5.21709 
1 -8.88631 -5.26311 -3.51073 
1 -7.06971 -7.06238 -3.45946 
1 -7.09143 -5.37758 -5.39754 
1 -5.33137 -7.05603 -5.43835 
1 -5.44547 -5.30345 -3.51923 
1 -2.07451 -7.02967 -5.28259 
1 -3.74307 -7.17549 -3.52784 
1 -3.72662 -5.19174 -5.27912 
1 -1.94183 -5.32875 -3.51894 
1 -0.205098 -7.059 -3.54181 
2 -0.110626 -5.299 -5.24368 
2 1.74565 -7.17291 -5.33354 
1 3.49606 -7.08709 -3.63455 
1 3.47421 -5.29341 -5.33411 
1 1.72278 -5.31873 -3.57831 
1 7.07676 -7.04303 -3.47473 
1 5.30838 -7.03519 -5.38578 
1 7.13567 -5.27489 -5.35014 
1 5.4215 -5.39251 -3.61572 
1 10.9358 -7.17628 -3.68507 
1 10.939 -5.24762 -5.2313 
2 8.95009 -6.98424 -5.30722 
2 9.00333 -5.31337 -3.5354 
1 12.7297 -5.12388 -3.35019 
1 -14.2803 -3.6828 -3.39483 
1 -12.7447 -3.61911 -5.38798 
2 -12.549 -1.77987 -3.55562 
1 -10.9312 -1.76686 -5.40499 
2 -10.802 -3.59209 -3.64193 
1 -9.07051 -3.46341 -5.36353 
2 -9.0528 -1.71722 -3.52452 
1 -10.9267 0.0303282 -3.47737 
2 -7.21059 -1.81453 -5.48341 
1 -7.23606 -3.49332 -3.59085 
1 -5.46451 -3.60684 -5.37079 
1 -5.42515 -1.68322 -3.52765 
1 -3.73213 -1.74955 -5.46817 
1 -1.8909 -3.46119 -5.42246 
1 -3.72229 -3.38197 -3.66492 
1 -1.91337 -1.76587 -3.70322 
1 -0.108053 -3.46754 -3.5439 
1 -1.85292 -0.122092 -5.42741 
1 -0.0601005 -1.79588 -5.38328 
1 1.671 -3.50314 -5.27598 
1 3.53975 -1.7583 -5.30311 
1 3.46855 -3.5849 -3.58344 
2 1.66857 -1.64922 -3.52156 
1 1.58621 -0.00825061 -5.2938 
1 1.79833 -2.11205 14.1647 
1 7.02933 -1.80416 -5.31504 
1 7.13828 -3.61507 -3.59746 
1 5.41578 -3.65207 -5.27197 
1 5.41339 -1.78713 -3.63016 
1 3.69978 -0.00605275 14.2298 
1 10.6067 -1.69274 -5.30063 
1 10.7412 -3.52562 -3.50579 
1 9.12685 -3.57569 -5.3316 
1 8.91632 -1.76074 -3.64736 
1 12.2612 -1.55552 -3.31214 
2 12.5626 -3.20264 -5.14455 
2 12.5063 -0.144906 -5.26949 
2 14.205 -2.93773 -3.0417 
1 -5.1591 -12.7992 0.29339 
1 -3.3927 -14.2717 0.379626 
1 -1.76739 -14.1935 -1.65487 
1 -1.24536 -14.3255 1.25898 
1 -3.68571 -12.7329 -1.73273 
1 0.23809 -14.8361 -0.616879 
1 2.52437 -14.3797 -1.66723 
1 3.68852 -14.1301 0.327711 
2 1.44185 -14.2438 1.51957 
1 5.20308 -14.0755 -1.71043 
1 -10.7625 -10.4305 -0.00251455 
1 -10.8315 -8.92851 -1.84605 
1 -8.99605 -10.8827 -1.50155 
2 -8.89161 -10.6961 1.76273 
1 -8.91056 -8.84539 -0.0649182 
2 -10.7717 -8.8185 1.86634 
2 -7.15653 -12.5417 1.60779 
2 -7.08943 -12.5006 -1.34981 
1 -7.13843 -10.5793 0.0284099 
2 -5.32437 -10.763 -1.61233 
2 -5.25986 -10.6045 1.63491 
1 -7.1991 -8.9921 -1.6691 
1 -7.05913 -8.79908 1.70082 
1 -5.30859 -8.77061 -0.106129 
1 -3.38876 -12.2675 1.68854 
1 -1.80827 -12.3122 -0.0431395 
1 -3.4217 -10.7048 -0.0648521 
1 -1.83669 -10.6826 -1.73547 
1 -1.72714 -10.4114 1.80325 
1 -3.56263 -8.98425 -1.74154 
1 -3.56148 -8.81362 1.82935 
1 -1.8504 -8.80497 -0.0334661 
1 -0.139421 -8.78569 -1.6739 
1 -0.071569 -8.75784 1.69882 
1 -0.0638874 -12.343 1.62058 
2 -0.0191679 -12.5244 -1.66346 
1 -0.0611916 -10.53 -0.0169907 
1 3.65424 -12.1866 -1.70843 
2 1.85208 -12.4104 -0.00367096 
1 3.62708 -12.2186 1.75111 
1 3.52307 -10.519 0.0765035 
1 1.72648 -10.4852 -1.69872 
1 1.71373 -10.5184 1.71235 
1 3.54735 -8.80555 -1.78823 
1 3.50923 -8.74834 1.72148 
1 1.79411 -8.71628 0.0100688 
1 5.27696 -12.3658 0.0486303 
1 6.9584 -12.4773 1.7036 
2 7.00691 -12.4134 -1.73093 
1 7.1813 -10.6328 -0.0389071 
1 5.34191 -10.6318 -1.68396 
1 5.35436 -10.5556 1.64508 
1 7.11274 -8.95174 -1.71666 
2 7.14427 -8.84348 1.73252 
1 5.38828 -8.75896 -0.143493 
1 9.05954 -10.8837 -1.80871 
1 8.7995 -12.4316 0.0936779 
1 10.8172 -8.9758 -1.86522 
1 10.8172 -8.83403 1.5899 
2 8.93023 -9.02552 -0.122865 
1 8.96947 -10.8366 1.84434 
1 -12.5285 -5.30467 0.0761607 
1 -12.3092 -7.0093 -1.69321 
2 -10.6024 -7.10767 0.0527942 
1 -10.6298 -5.31024 -1.8392 
1 -10.7307 -5.48816 1.91389 
1 -8.85076 -7.07446 -1.80457 
1 -8.89437 -7.09179 1.76142 
1 -8.96631 -5.28033 -0.0616897 
1 -7.22939 -7.15805 0.0176235 
1 -7.21711 -5.29341 -1.7778 
1 -5.39211 -7.11065 -1.8092 
2 -7.16983 -5.471 1.87953 
1 -5.33543 -7.12082 1.75774 
1 -5.48265 -5.38589 -0.0535081 
1 -3.58186 -7.10882 0.012652 
1 -1.87034 -7.12429 -1.7364 
1 -1.85052 -7.14134 1.89464 
1 -3.68584 -5.35092 -1.82522 
1 -3.72991 -5.32436 1.85523 
2 -1.87048 -5.31216 0.0308874 
1 -0.109826 -5.33401 -1.90169 
1 -0.0651614 -7.04969 0.0662904 
1 -0.0462559 -5.30408 1.92917 
1 3.55151 -7.06858 -0.0376889 
2 1.70511 -6.91363 -1.73986 
1 1.75858 -7.08202 1.76186 
2 3.65147 -5.24371 -1.8262 
1 3.54244 -5.20897 1.75501 
1 1.55105 -5.2018 0.140395 
1 7.1856 -7.06155 -0.158903 
1 5.34311 -7.04247 -1.74797 
1 7.09331 -5.26836 -1.81024 
1 5.34527 -7.04885 1.69834 
2 7.26217 -5.20088 1.61169 
1 5.36485 -5.31063 -0.060675 
1 10.771 -7.16124 -0.0896105 
1 10.829 -5.38914 1.62191 
1 10.796 -5.37853 -1.91195 
1 8.97473 -7.17721 -1.78882 
1 8.9617 -7.06971 1.61059 
1 8.97636 -5.39549 -0.110249 
1 12.4619 -7.14648 -1.82567 
1 12.7636 -7.07327 1.67544 
2 12.5974 -5.37875 -0.164602 
1 -14.3757 -3.85104 0.209067 
2 -14.3111 -1.92971 -1.52402 
1 -14.2757 -1.74113 1.84653 
1 -12.5625 -3.60994 -1.67606 
1 -12.4565 -1.84084 0.00163075 
1 -12.4329 -3.58037 1.83336 
1 -10.7289 -3.54745 -0.0701491 
1 -10.7705 -1.71381 -1.75154 
1 -10.7196 -1.80754 1.57336 
1 -8.95516 -3.53654 -1.7862 
2 -8.99738 -3.68391 1.79114 
1 -8.86258 -1.7447 -0.095182 
1 1.73037 -0.0573348 12.5096 
1 -1.76854 -0.0402015 12.5985 
1 -7.15993 -3.45816 -0.154139 
1 -7.24426 -1.61904 -1.83835 
1 -7.35253 -1.80828 1.76191 
1 -5.47957 -3.56209 -1.89151 
2 -5.44109 -3.45661 1.7996 
2 -5.51696 -1.62456 -0.086176 
1 -1.78456 -3.45776 12.4447 
1 -3.65179 -3.61181 -0.00856345 
1 -3.5762 -1.77071 -1.80991 
2 -2.00942 -3.5105 -1.77479 
2 -3.53812 -1.73152 1.79181 
1 -1.85794 -3.58108 1.79607 
1 -1.81778 -1.79659 0.0540047 
1 -0.104129 -3.46392 0.0517638 
1 -0.0768061 -1.76867 1.94625 
1 -1.77595 -1.94406 14.2102 
1 -0.197772 -0.00588003 0.118188 
1 -3.60447 -1.77813 12.6546 
1 -0.207894 -1.74305 -1.77062 
2 3.55107 -3.39287 -0.0304604 
2 1.62501 -3.55788 -1.73422 
1 3.61031 -1.6307 -1.88186 
1 1.79107 -3.46175 1.93506 
1 3.57449 -1.73614 1.86946 
1 1.69555 -1.76722 0.0425094 
2 1.65853 -0.0733448 1.86668 
1 7.16992 -3.62214 -0.142208 
1 7.14086 -1.7586 -1.9376 
1 7.18197 -1.80849 1.80518 
1 5.46724 -3.5086 -1.95056 
1 5.44789 -3.46967 1.77303 
2 5.54988 -1.69901 -0.0730736 
1 -5.4983 -3.39809 12.5785 
1 10.6873 -3.5302 -0.0284966 
1 10.7702 -1.68117 1.65833 
1 10.4369 -1.64803 -1.81668 
1 8.95698 -3.59662 -1.83696 
1 9.07135 -3.52966 1.67276 
2 8.83796 -1.7842 0.020728 
1 12.2339 -3.25527 -1.70658 
1 12.6486 -1.58096 0.0698745 
2 12.5112 -3.55016 1.61225 
2 14.3139 -3.64496 -0.333608 
1 14.7457 -1.45539 -1.23518 
1 14.612 -1.74239 1.55558 
1 -7.24486 -1.83395 12.3626 
2 -5.07828 -12.7729 3.4184 
2 -2.85736 -14.1598 3.07796 
1 -0.216589 -14.4261 3.37583 
1 3.54516 -14.1319 3.1453 
1 -10.6339 -10.8261 3.40554 
1 -10.6975 -8.94727 5.26738 
2 -8.82673 -8.91633 3.51689 
2 -8.75175 -10.7606 5.15293 
1 -6.98426 -11.0539 3.59363 
1 -5.18947 -11.0725 5.23903 
1 -6.97729 -9.07545 5.49412 
2 -5.36933 -9.03267 3.51759 
2 -3.04737 -12.6969 5.13942 
1 -1.50704 -12.2294 3.35842 
1 -1.5061 -10.6103 5.30667 
1 -3.3883 -10.7734 3.53569 
2 -3.53062 -8.98216 5.36293 
1 -1.70572 -8.75657 3.60647 
1 0.111636 -8.86632 5.32107 
1 1.72831 -12.3901 3.38144 
2 0.0861068 -12.4979 5.25872 
1 3.46681 -12.507 5.12885 
1 0.109468 -10.5845 3.48635 
1 1.82747 -10.6353 5.37227 
2 3.50441 -10.5789 3.51639 
1 3.54643 -8.89972 5.22146 
1 1.6635 -8.74188 3.47053 
1 5.52564 -12.3823 3.44155 
1 7.24269 -10.6791 3.501 
1 5.26614 -10.7434 5.31158 
2 7.16062 -8.6867 5.28083 
2 5.3764 -8.81524 3.51573 
1 9.08354 -10.3836 5.18853 
2 9.06005 -8.72584 3.488 
2 10.8827 -8.29726 5.34698 
1 -12.4701 -5.54696 3.56596 
1 -10.7901 -7.17269 3.62388 
1 -10.6967 -5.49993 5.38204 
1 -8.9431 -7.19733 5.38664 
1 -8.97181 -5.58904 3.70841 
1 -7.06692 -7.29852 3.73144 
1 -7.18943 -5.44352 5.38427 
1 -5.31427 -7.30843 5.417 
2 -5.33107 -5.40025 3.6924 
1 -1.74736 -7.12956 5.46328 
1 -3.59776 -7.14392 3.62984 
1 -3.68163 -5.42612 5.55225 
2 -1.96067 -5.36447 3.60805 
1 -0.120478 -6.99602 3.44899 
2 0.0500492 -5.41636 5.41114 
1 1.7695 -7.05339 5.22829 
1 3.61399 -6.99551 3.56052 
1 3.43687 -5.20307 5.30981 
1 1.80966 -5.29597 3.54117 
1 7.21646 -6.97154 3.34134 
1 5.13659 -6.99778 5.35909 
2 7.03459 -5.45883 5.18382 
2 5.29712 -5.19847 3.48575 
1 10.9778 -7.16583 3.21707 
1 10.8615 -5.54669 5.32808 
1 8.95754 -6.9708 5.32098 
1 9.19692 -5.47852 3.40042 
2 12.6124 -5.36331 3.4049 
1 -13.9263 -3.57229 3.67772 
1 -12.4724 -3.58462 5.48682 
1 -12.4516 -0.066177 5.35678 
1 -12.2895 -1.71872 3.55828 
1 -10.7362 -1.88219 5.49149 
1 -10.806 -3.78056 3.67648 
1 -8.90141 -3.53928 5.44283 
2 -9.09575 -1.83095 3.67583 
2 1.78054 -6.73761 12.3018 
1 -7.27586 -1.74038 5.42692 
2 -7.1965 -3.56565 3.66533 
1 -5.45417 -3.57006 5.57521 
1 -5.46457 -1.77485 3.64134 
1 1.93615 -5.09197 14.0979 
1 3.72472 -5.27758 12.4049 
2 -3.67281 -1.84794 5.42028 
2 -1.88847 -3.59759 5.4381 
1 -3.73899 -3.48682 3.65919 
1 -1.82921 -1.71346 3.56702 
1 -0.0168815 -1.81403 5.19284 
1 -0.0728199 -5.30116 12.1177 
1 -0.170944 -6.25646 14.1601 
1 -1.86527 -7.05266 12.5236 
1 -0.0437284 -3.61403 3.52474 
1 1.68659 -3.55527 5.34904 
1 3.57646 -1.82706 5.29699 
1 3.47511 -3.43807 3.60978 
1 1.82896 -1.73074 3.67838 
1 7.12073 -1.80156 5.24443 
1 7.32085 -3.68185 3.5624 
1 5.43135 -3.41536 5.28961 
1 5.33872 -1.8246 3.47808 
1 5.34039 -0.0494646 5.29692 
2 10.8466 -1.92001 5.3563 
1 10.6813 -3.70695 3.49345 
2 8.98358 -3.71062 5.31519 
1 8.98824 -1.89684 3.46581 
2 12.5368 -1.84425 3.40866 
1 12.5788 -3.89135 5.47694 
1 14.5086 -3.77573 3.17907 
1 14.0786 -2.02184 5.18146 
2 14.1947 0.0111999 3.32116 
1 -8.88576 -9.13783 7.04913 
1 -5.14374 -9.41073 10.4233 
1 -5.16903 -11.1136 8.47131 
1 -7.00636 -10.8579 6.946 
2 -7.00185 -9.03715 8.74433 
1 -5.16341 -8.95717 7.02695 
1 -1.3282 -12.4092 7.17063 
2 -1.73236 -8.9582 10.8277 
1 -1.78791 -10.7138 8.92615 
1 -3.42734 -10.8557 6.96544 
1 -3.52474 -9.06886 8.76528 
1 -1.76402 -8.90786 7.20318 
1 1.88282 -12.4279 7.08976 
1 0.187096 -9.08108 8.88766 
1 0.0342292 -10.5528 7.13782 
1 2.07333 -10.7053 8.80535 
1 3.62557 -10.6459 7.02376 
1 3.55401 -8.95521 9.07145 
1 1.97393 -8.80237 7.02541 
1 1.69108 -9.03275 10.8547 
1 7.03786 -10.616 7.00418 
1 5.41521 -9.00336 10.4959 
1 5.33597 -10.6076 8.70936 
1 6.9862 -8.85427 8.70326 
1 5.23113 -8.78054 7.05822 
1 8.914 -8.89052 6.95848 
1 -10.3853 -5.39172 9.07142 
2 -10.5496 -7.13433 7.24793 
1 -8.92444 -7.31179 9.11287 
1 -8.67567 -5.41812 7.20291 
1 -8.59012 -5.61308 10.7627 
1 -6.8914 -7.43906 10.5397 
1 -6.97758 -5.59682 8.94087 
1 -5.31066 -7.28399 8.75937 
1 -7.17409 -7.26979 7.12892 
1 -5.48635 -5.51992 7.04578 
1 -5.50531 -5.53572 11.0446 
2 -3.64496 -7.40661 10.8046 
1 -1.93253 -5.47855 10.8079 
1 -1.84112 -7.14163 9.08151 
2 -3.82649 -5.43671 9.03901 
1 -3.45579 -7.18603 7.27159 
1 -1.73132 -5.41001 7.28043 
1 0.0328465 -7.1962 7.22157 
2 -0.0413149 -5.44195 9.08387 
1 0.0518611 -7.23573 10.7174 
1 3.68556 -7.31882 10.9525 
1 1.82771 -5.05397 10.5638 
1 1.73246 -7.12212 9.05699 
1 3.64014 -5.32911 9.01823 
1 3.49352 -7.12701 7.17711 
2 1.90621 -5.33872 7.19753 
1 6.99801 -7.07283 10.689 
1 5.37605 -5.39177 10.6957 
1 5.24864 -7.10374 8.85477 
1 7.10956 -5.36338 8.95954 
1 7.08672 -6.98627 7.08862 
2 5.26031 -5.25502 7.19731 
1 8.74479 -5.34902 10.6206 
1 10.5895 -5.20562 8.95145 
1 10.6305 -7.07351 7.32556 
1 8.73087 -7.1385 9.05861 
1 8.88183 -5.40499 7.18041 
2 -12.1364 -1.62393 7.53807 
1 -9.04573 -1.75059 10.6445 
1 -11.0417 -2.82139 9.52694 
2 -10.7412 -3.88042 7.20168 
1 -8.69906 -3.71838 9.11931 
2 -9.22465 -1.72378 7.42829 
1 -11.0793 -0.449319 9.57732 
1 -7.15746 -3.61722 10.8142 
1 -5.34795 -1.67228 10.6954 
1 -7.15478 -1.75214 9.01456 
2 -5.46788 -3.50551 9.01221 
1 -7.26699 -3.57168 7.14525 
1 -5.36638 -1.81257 7.21943 
1 -3.5113 -5.2675 12.5887 
1 -3.74697 -3.63769 10.9709 
1 -1.89571 -1.69615 10.7955 
1 -3.64749 -1.75592 8.99482 
2 -1.94625 -3.65761 9.10677 
1 -3.7642 -3.7534 7.29822 
1 -1.92967 -1.89158 7.30034 
1 -0.0312659 -1.62474 8.90937 
1 0.0328319 -3.38556 10.5546 
1 0.10721 -8.48759 12.7575 
2 12.4448 -1.79406 7.27885 
1 -1.88345 0.100605 8.99776 
2 -0.0230015 -3.64433 7.33812 
1 1.73757 -1.85905 7.16357 
2 3.63221 -3.41613 7.24709 
1 1.73087 -1.78289 10.6815 
1 1.86294 -3.50203 8.92183 
1 3.46793 -1.65518 8.92425 
1 3.5854 -3.35047 10.7023 
1 8.79943 -3.54606 8.8968 
2 10.5771 -1.96279 9.005 
1 3.51382 -0.13916 7.04674 
1 3.6325 -0.154914 10.7441 
1 7.19553 -1.8215 8.85696 
1 7.04031 -3.48746 10.7292 
1 5.45401 -1.68338 10.7102 
1 5.39372 -1.74639 7.1134 
1 5.4377 -3.49939 8.98154 
1 7.11683 -3.57927 7.07425 
1 5.31683 -0.142498 8.82445 
1 8.8841 -1.92485 7.01164 
1 8.88337 -1.82126 10.8016 
1 10.7898 -3.758 7.16882 
1 -5.63715 -0.0486742 -12.5951 
2 -0.127165 0.0539353 -14.5052 
1 -10.8785 0.140114 -7.13141 
1 -7.37355 0.126326 -7.11671 
1 -0.0640258 -0.155723 -7.08294 
1 -1.8984 -0.153926 -8.9322 
2 -9.21336 0.0963122 -5.41751 
2 14.2525 -0.249439 -3.45475 
1 -14.3167 0.0866239 0.134835 
1 5.29778 0.0645452 1.81843 
2 12.4034 0.0521007 -1.72958 
1 1.7342 -0.0814575 5.46439 
2 7.00874 0.0162921 3.51783 
1 7.31463 0.0698088 10.6314 
1 11.8942 0.0272911 9.06384 
2 8.93641 0.114649 8.94245 
1 -10.4424 3.78282 -10.8509 
1 -7.2688 1.60729 -12.5339 
1 -5.58085 3.53992 -12.7298 
1 0.0963249 5.41362 12.608 
2 -2.07033 1.87556 -14.1711 
2 -3.82286 1.78406 -12.5139 
1 -1.79027 3.5478 -12.369 
2 -0.0874198 1.70208 -12.4378 
1 -0.169371 3.51491 -14.2055 
1 1.95071 7.14111 12.5979 
1 3.33178 3.47767 -14.3883 
1 3.51833 1.7285 -12.4245 
2 1.77071 3.58502 -12.4767 
1 1.71181 1.7451 -14.2323 
1 5.19614 1.67623 -14.2008 
1 7.16001 1.97877 -12.4905 
1 5.19735 3.55977 -12.5472 
1 -1.68214 7.1496 -12.2452 
1 -3.44885 5.36103 -12.4931 
1 0.0493899 5.24992 -12.5194 
1 1.72538 7.18048 -12.3964 
1 3.33417 5.32454 -12.6066 
1 -12.5604 1.87538 -7.2524 
1 -9.12114 1.84392 -10.7163 
2 -9.05318 3.78854 -8.89136 
2 -9.2435 2.09541 -7.06481 
1 -11.0189 3.82739 -7.16635 
1 -10.8274 2.0312 -8.98579 
1 3.58096 5.16856 12.5807 
1 -7.25809 3.48418 -10.8035 
2 -5.29335 1.75652 -10.7062 
2 -7.17206 1.88233 -8.84865 
1 -5.46956 3.73818 -9.00622 
1 -7.21701 3.72566 -7.00573 
2 -5.43114 1.74442 -7.02664 
1 -1.63737 7.06804 12.2176 
1 -3.6586 3.61546 -10.7099 
1 -1.95495 1.76615 -10.7183 
1 -3.54892 1.63662 -8.89144 
2 -1.69414 3.46906 -9.02314 
2 -3.54956 3.56571 -7.02508 
1 -1.87405 1.54758 -7.14421 
1 -0.117056 3.54218 -7.1317 
1 -0.132332 1.5104 -8.92462 
1 -0.143633 -0.130427 -10.7057 
1 -3.38234 5.29677 12.7415 
1 7.19981 1.65472 12.5273 
1 0.0199125 3.57135 -10.6811 
1 3.58095 3.52374 -10.6961 
1 1.73736 1.7433 -10.7166 
1 3.53779 1.81112 -8.84572 
2 1.71228 3.46269 -8.90786 
1 3.56045 3.56616 -7.13473 
2 1.81132 1.72331 -7.06926 
1 3.50934 -0.113169 -7.11662 
2 7.08084 3.69926 -10.5843 
1 5.27917 1.82912 -10.7226 
1 7.17182 1.85368 -8.87422 
1 5.28039 3.54087 -8.85731 
1 6.99378 3.54819 -7.19036 
1 5.32063 1.80251 -7.11117 
2 5.26718 0.0456619 -8.92436 
2 7.03455 -0.0973688 -7.12828 
1 9.03174 2.09828 -10.8717 
2 10.704 2.01134 -8.89507 
1 8.76523 3.63793 -8.83855 
1 8.83497 1.70295 -7.1414 
1 10.7252 3.56578 -7.07449 
2 12.6106 1.52429 -7.11097 
1 8.83781 0.0334837 -8.95953 
2 10.6037 0.0075549 -7.32007 
1 -10.8157 5.68917 -9.04605 
1 -10.7743 7.11133 -6.98777 
1 -8.84063 7.11671 -8.91687 
1 -9.04117 5.41107 -7.04625 
1 -8.65617 5.53569 -10.9511 
2 -5.48416 5.36217 -10.8842 
1 -7.01035 7.28548 -10.7114 
1 -7.15899 5.34267 -8.82857 
1 -5.42266 7.07352 -8.8186 
2 -7.11727 7.18859 -7.07538 
1 -5.37058 5.37764 -7.01732 
2 -3.53027 7.21292 -10.713 
1 -1.75582 5.38201 -10.679 
1 -1.78639 7.14234 -8.82775 
2 -3.67109 5.34966 -8.92871 
1 -3.56902 7.1279 -7.00745 
1 -1.7942 5.34535 -7.05442 
1 0.0748462 7.22698 -10.6465 
2 0.0284873 5.36627 -8.97822 
1 0.143432 7.10774 -7.21504 
1 3.58543 7.29157 -10.7805 
1 1.87741 5.31832 -10.6131 
2 1.88523 7.2823 -8.91883 
1 3.58697 5.21595 -8.94406 
1 3.6236 7.10427 -7.12469 
1 1.86465 5.27144 -7.09138 
1 7.06302 6.7946 -10.6536 
1 5.19509 5.22875 -10.6213 
1 7.1533 5.38714 -8.85045 
1 5.1979 7.06047 -8.83884 
1 7.20856 7.09116 -7.12749 
1 5.34732 5.27605 -7.08244 
1 8.99464 5.40442 -10.4881 
1 10.6392 5.18664 -8.80578 
1 8.86753 7.20854 -8.89764 
1 8.90292 5.26743 -7.14357 
2 10.5445 6.87156 -7.05925 
1 -9.02628 8.94267 -7.19498 
1 -5.10851 8.87131 -10.7572 
1 -4.99476 10.4659 -8.94799 
1 -6.90608 8.96439 -8.9375 
1 -5.32027 8.82866 -7.09766 
1 -7.04984 10.5836 -7.22258 
2 -1.69641 9.03279 -10.5576 
2 -1.85234 10.632 -8.71116 
1 -3.6973 10.6283 -6.95878 
1 -3.61668 8.78134 -8.76689 
1 -1.85096 8.87506 -6.99298 
1 0.0729687 8.8814 -8.81035 
1 0.0253261 10.6492 -7.05544 
1 1.73783 9.05192 -10.8092 
1 1.74354 10.7854 -9.01937 
1 3.5319 10.861 -7.16889 
1 3.56512 9.06769 -8.9262 
1 1.78562 9.00908 -7.15318 
1 5.3604 8.86999 -10.3933 
1 5.38282 10.6634 -8.64675 
1 7.25916 10.7073 -7.04824 
1 7.14842 8.87166 -8.79955 
1 5.32751 8.84943 -7.12314 
1 8.97015 8.86816 -7.02199 
1 -1.82442 12.4599 -7.09772 
1 -0.138094 12.215 -8.88609 
2 1.63135 12.587 -7.33553 
2 -14.233 3.72747 -3.18552 
2 -12.6657 3.76804 -5.17564 
1 -14.3628 0.0161651 -3.31086 
1 -12.6402 0.0670472 -5.40706 
1 -12.8235 1.82586 -3.52195 
2 -10.9728 1.98312 -5.19718 
1 -10.9447 3.74431 -3.39178 
1 -9.11414 3.79983 -5.23828 
2 -9.26013 1.89894 -3.49678 
1 5.28903 3.36755 12.5322 
1 -7.28034 1.90217 -5.20683 
2 -7.25581 3.73733 -3.42756 
1 -5.52247 3.56134 -5.25353 
1 -5.34297 1.76351 -3.55466 
1 -5.372 0.00673866 -5.3392 
2 -7.21764 0.0693488 -3.57598 
1 -3.52387 1.62723 -5.31745 
1 -1.83132 3.43694 -5.3207 
1 -3.55607 3.49046 -3.78989 
1 -1.96473 1.74175 -3.62212 
1 -0.154277 1.81126 -5.39677 
1 -0.0922281 3.57532 -3.63175 
1 -0.180136 0.0388355 -3.65746 
1 -3.63014 -0.0118169 -3.62532 
1 3.62197 1.75696 -5.31054 
2 1.67014 3.62416 -5.28078 
1 3.54701 3.55319 -3.52737 
2 1.75838 1.62438 -3.63521 
1 6.92417 1.81094 -5.34291 
1 7.02382 3.5532 -3.60515 
1 5.27691 3.60758 -5.26846 
1 5.29408 1.79479 -3.54222 
1 7.10467 -0.00685194 -3.60104 
1 10.6721 1.6337 -5.44864 
1 10.6974 3.4124 -3.74507 
2 8.83712 3.40962 -5.37556 
1 8.77938 1.73465 -3.61353 
1 10.6129 0.183912 -3.61 
1 12.4577 1.70339 -3.63983 
1 12.4045 3.32181 -5.40481 
1 9.02068 0.0468686 -5.34449 
1 14.1881 3.48037 -3.62302 
2 0.444265 3.48986 14.2299 
1 -12.7165 5.58405 -3.44207 
1 -10.749 7.3825 -3.49379 
1 -10.8893 5.43946 -5.18889 
2 -8.94392 7.28566 -5.14115 
1 -9.12698 5.47334 -3.51964 
1 -7.17907 6.97345 -3.45148 
1 -7.26411 5.41719 -5.33043 
1 -5.43373 7.17719 -5.24804 
1 -5.49108 5.3193 -3.52448 
1 -1.87106 7.10345 -5.29422 
1 -3.74076 7.06001 -3.62734 
1 -3.67123 5.24151 -5.30536 
1 -1.85393 5.4169 -3.65489 
1 -0.0892998 5.37757 -5.44214 
2 0.0196425 7.14467 -3.61587 
1 1.81228 7.12627 -5.47514 
2 3.43714 7.24038 -3.68046 
1 3.48945 5.32227 -5.34906 
1 1.7706 5.35216 -3.58549 
1 7.12816 6.91506 -3.59681 
1 7.05863 5.28665 -5.37527 
2 5.39363 7.02161 -5.33977 
1 5.24972 5.3176 -3.60868 
1 10.4905 7.00018 -3.49026 
1 10.8274 5.23796 -5.27213 
1 8.73062 6.94329 -5.31415 
1 8.82655 5.18253 -3.5732 
2 12.4211 5.35096 -3.34036 
1 -10.553 9.07699 -5.16993 
1 -8.70361 10.6707 -5.28449 
1 -8.72036 8.92278 -3.34457 
1 -10.3379 10.6943 -3.54204 
1 -7.02986 10.6019 -3.56686 
1 -5.51053 10.6543 -5.31516 
1 -7.09681 8.91304 -5.32175 
1 -5.46789 8.91944 -3.44188 
1 -1.82211 10.703 -5.3689 
1 -3.61152 10.6286 -3.62734 
2 -3.65938 8.87632 -5.2398 
1 -1.78654 8.94637 -3.63499 
1 0.0580822 8.95034 -5.42522 
1 -0.0294833 10.7422 -3.66303 
1 -1.75957 12.4074 -3.54615 
2 1.87808 10.9043 -5.37327 
1 3.43169 10.7876 -3.62527 
1 3.61195 9.00212 -5.4724 
1 1.70565 8.94555 -3.70263 
1 1.75907 12.5086 -3.47873 
1 7.24333 10.9228 -3.53195 
2 5.48138 10.8771 -5.40686 
1 7.15427 8.86408 -5.38018 
2 5.2628 8.93557 -3.6732 
1 10.6753 8.70044 -5.17776 
1 8.8739 10.6099 -5.2333 
1 8.72794 8.83224 -3.57053 
1 -5.19057 12.2433 -3.46982 
1 -0.128906 12.5095 -5.53166 
1 -3.58125 12.4241 -5.33786 
1 -3.54427 14.0795 -3.5239 
1 -0.113079 14.3425 -3.62219 
1 3.77623 12.6242 -5.48107 
2 1.69327 14.116 -5.29967 
1 3.5024 14.348 -3.87472 
1 5.34735 12.5834 -3.62918 
1 -14.3009 3.80209 0.171534 
1 -14.2772 1.7996 -1.50479 
1 -14.4793 1.79378 1.92996 
1 1.84067 3.46574 12.4162 
1 -12.5586 1.86693 0.178141 
1 -12.6561 3.81298 -1.61449 
2 -12.5113 3.63618 2.02614 
1 -12.5558 -0.000899521 -1.56144 
2 -10.8659 3.66233 0.0551704 
1 -11.0448 2.02692 -1.77985 
1 -10.8098 1.99628 2.00389 
1 -9.03836 3.72165 -1.64702 
1 -8.95008 3.56577 1.91626 
1 -9.09699 1.88675 0.0623434 
1 -10.7194 0.123243 -0.114494 
2 -12.4798 -0.0282731 1.77454 
1 -7.26338 3.58091 0.0384161 
1 -7.28157 1.86685 -1.77231 
1 -7.1862 1.94163 1.74368 
1 -5.52423 3.5788 -1.76526 
1 -5.39202 3.59464 1.75879 
1 -5.45041 1.7444 0.0494216 
1 -7.29798 0.0197684 0.0420309 
1 -5.38078 0.0904822 -1.885 
1 -3.67282 0.131188 0.0244261 
2 -3.68775 3.52582 0.024563 
1 -3.6752 1.82921 -1.80718 
2 -1.87495 3.59613 -1.95786 
1 -3.60948 1.73692 1.81369 
1 -1.7455 3.49099 1.78247 
1 -1.8762 1.82788 -0.0231483 
1 -0.114552 1.68503 -1.7555 
1 -0.127077 3.62421 -0.0470096 
1 -0.0895192 1.90176 1.85326 
2 3.46547 3.5862 -0.0826197 
1 3.48255 1.76816 -1.85232 
2 1.69897 3.60652 -1.88453 
1 3.56983 1.79814 1.78868 
1 1.76762 3.62119 1.78123 
2 1.58235 1.74749 0.0264966 
2 3.50766 -0.0363037 -0.0476794 
1 1.59302 -0.00597242 -1.66511 
1 7.10796 3.54065 0.0545029 
1 7.05183 1.81943 -1.8307 
1 7.09751 1.83317 1.83759 
1 5.33273 3.56708 -1.74974 
1 5.32209 3.61151 1.89101 
2 5.3717 1.87403 0.0163782 
1 7.13905 0.158142 -0.0348763 
1 3.5499 1.6824 12.4966 
1 10.8096 3.58053 0.0308207 
1 10.736 1.8897 1.73246 
2 10.6882 1.92763 -1.80681 
1 8.79707 3.52287 -1.80648 
1 8.89284 3.50408 1.82953 
1 8.92036 1.84978 0.067709 
2 8.85491 0.108637 1.81374 
1 12.5 1.92228 0.0263489 
1 3.32632 3.46948 14.2339 
1 12.5148 3.51127 -1.90954 
1 10.6693 0.155411 -0.00647766 
1 8.83622 0.169847 -1.78567 
1 12.4457 3.70743 1.77584 
1 14.0388 3.59331 -0.107905 
2 14.2088 1.69608 -1.83487 
1 14.3566 2.00899 1.8993 
1 14.3671 0.34677 0.158493 
1 -12.6107 5.49689 0.127649 
1 -12.2826 7.22192 1.95269 
1 -12.3892 7.46829 -1.67912 
1 -10.787 7.1628 0.00173765 
1 -10.9402 5.50602 -1.92488 
1 -10.6746 5.31721 1.87005 
1 -8.95696 6.95417 -1.77636 
2 -9.09207 7.2595 1.8205 
1 -8.96764 5.36537 0.0226714 
1 -7.22419 7.11312 0.0118882 
1 -7.26056 5.31053 -1.62628 
2 -5.40766 7.13258 -1.68041 
1 -7.24079 5.31026 1.71477 
1 -5.37465 7.03019 1.79073 
1 -5.47098 5.40609 0.114389 
1 -3.64224 7.11854 -0.0310967 
1 -1.86017 7.04647 -1.94638 
1 -1.77272 7.18794 1.70216 
1 -3.75902 5.27931 -1.94688 
1 -3.48782 5.34964 1.80599 
2 -1.79835 5.32266 -0.0418358 
1 0.0104757 5.32068 1.73704 
1 -0.0599047 5.40811 -1.79586 
1 0.0323504 7.15549 -0.022048 
1 3.55329 7.06601 0.0388557 
1 1.85662 7.07043 -1.85692 
2 1.68196 7.11142 1.86354 
1 3.49201 5.28669 -1.91644 
2 3.59868 5.33976 1.88166 
1 1.67002 5.37153 -0.0205193 
1 7.01887 7.21133 0.0472059 
1 7.04203 5.31688 -1.72098 
2 5.25225 6.92494 -1.75943 
1 7.14579 5.32654 1.81324 
1 5.38252 7.12677 1.90565 
1 5.30328 5.29641 0.118585 
1 10.6219 7.04579 -0.174108 
1 10.6856 5.32909 1.74377 
1 10.5458 5.30714 -1.77136 
1 8.79341 7.06081 -1.85392 
2 9.17132 7.50699 1.85079 
1 8.75073 5.39977 0.165306 
2 12.139 7.31634 1.69137 
1 12.3301 7.20813 -1.72269 
1 12.4591 5.41772 -0.159492 
2 -8.70091 10.831 -1.65619 
1 -8.80311 10.8049 1.53774 
2 -10.5256 9.10949 -1.67479 
1 -10.9453 9.22877 1.47712 
1 -8.90435 8.88882 0.0282561 
1 -7.06482 10.818 -0.012453 
1 -5.35745 10.6164 1.72692 
1 -5.39356 10.5406 -1.70075 
1 -7.20741 8.85357 -1.69588 
1 -7.05091 8.8994 1.66415 
1 -5.34742 8.95623 0.0567987 
1 -3.49134 10.5862 -0.0573034 
2 -1.76664 10.7411 1.76645 
1 -1.88176 10.6736 -1.84013 
1 -3.54512 8.91395 -1.86406 
2 -3.55001 8.91099 1.76176 
1 -1.73007 8.88814 -0.0886863 
1 -3.53576 12.4742 -1.68362 
2 -3.69426 12.6387 1.79606 
2 0.0618713 8.8984 -1.83756 
1 -0.0207676 10.6773 0.00668682 
1 0.00739377 8.9193 1.80201 
1 -0.111812 12.4508 -1.76408 
1 3.45018 10.6599 -0.0646744 
1 1.71768 10.6274 1.80555 
1 1.71363 10.7001 -1.91496 
1 3.35991 8.94295 -1.83967 
1 3.53394 8.79755 1.81743 
1 1.65191 8.97488 0.0178624 
1 -0.0197843 12.4776 1.77216 
1 3.45372 12.4831 1.72962 
2 1.73577 12.435 -0.0846907 
1 7.02932 10.5004 0.0400603 
1 5.14798 10.776 1.8048 
2 5.23117 10.7275 -1.81319 
1 7.06098 8.92312 -1.82353 
1 6.97907 8.96505 1.85326 
2 5.2099 8.87757 0.0319818 
2 7.20019 11.9708 1.77452 
1 6.90896 12.5544 -1.54415 
1 10.5495 8.91922 -1.91791 
2 11.1013 9.28136 0.44617 
2 9.08298 10.3531 1.72616 
1 8.94707 10.6279 -1.59787 
1 8.78374 8.75366 -0.144898 
2 -5.31407 12.4701 -0.0693331 
1 -7.14465 12.6874 1.64377 
1 -7.01224 12.5826 -1.91325 
2 -5.23875 14.3007 -1.80681 
1 -1.79158 12.4728 0.0156516 