ITEM: TIMESTEP
1730000
ITEM: NUMBER OF ATOMS
1289
ITEM: BOX BOUNDS pp pp pp
-100 100
-100 100
-100 100
ITEM: ATOMS type x y z 
1 -1.81117 -7.03628 -12.5085 
1 -3.567 -5.18241 -12.6293 
1 -0.083283 -5.3004 -12.4138 
1 1.56535 -7.0775 -12.4125 
1 3.54719 -5.39574 -12.4901 
1 -7.47272 -1.70075 -12.5491 
2 -5.45773 -3.51302 -12.4069 
2 -1.89026 -1.55643 -14.3075 
2 -3.7661 -1.79133 -12.528 
1 -1.90177 -3.47237 -12.5311 
1 -0.0753909 -1.79692 -12.5144 
1 -0.154157 -3.49388 -14.1431 
2 3.41834 -3.69361 -14.1642 
1 1.69481 -3.61186 -12.4634 
1 3.46056 -1.93531 -12.3798 
1 1.75316 -1.98582 -14.4365 
2 1.82793 -0.12498 -12.4591 
2 3.53247 -0.194271 -14.2605 
1 5.18508 -1.84009 -14.2872 
2 7.07323 -1.88378 -12.4688 
2 5.37831 -3.66034 -12.4865 
2 5.25203 -0.0649767 -12.4322 
1 -1.95011 -12.5411 -7.41167 
1 -9.07353 -8.864 -7.18631 
2 -5.55366 -10.5575 -8.7814 
1 -5.41161 -8.93055 -10.6857 
1 -7.20025 -8.75689 -8.94686 
1 -5.47716 -8.73418 -7.05203 
1 -7.27109 -10.4675 -7.11672 
1 -2.14182 -10.6277 -8.80353 
1 -2.13487 -8.91835 -10.9292 
1 -3.85153 -10.6277 -6.97086 
2 -3.7091 -8.71321 -8.86645 
1 -1.82586 -8.87403 -7.19788 
1 -0.219678 -8.87066 -9.11879 
2 -0.0777077 -10.6992 -7.34366 
1 -0.274734 -10.584 -10.5728 
1 1.77243 -12.5142 -7.37676 
1 1.70732 -9.05192 -10.8154 
2 1.78248 -10.7652 -9.04376 
1 3.56432 -10.581 -7.27241 
2 3.4708 -8.81404 -8.96195 
1 1.77434 -8.94246 -7.23448 
1 5.38277 -10.5318 -8.8379 
1 7.24158 -8.79591 -8.8056 
1 5.29692 -8.82307 -7.17744 
1 7.26255 -10.627 -7.21493 
1 5.34814 -8.91651 -10.5775 
1 9.00411 -8.95536 -7.14589 
1 -10.8136 -5.23627 -8.81136 
1 -8.90966 -5.28491 -10.5997 
1 -8.94062 -7.09487 -8.95299 
2 -8.97939 -5.22247 -7.17828 
2 -10.8525 -7.06292 -7.00695 
1 -7.05883 -6.95532 -10.796 
1 -5.36133 -5.32342 -10.7628 
1 -7.13719 -5.30427 -9.02146 
1 -5.37991 -7.08754 -8.89071 
2 -7.37137 -7.03671 -7.12388 
1 -5.46576 -5.20609 -7.1283 
2 -3.77321 -7.02517 -10.8626 
1 -1.94354 -5.29242 -10.7516 
1 -1.98422 -7.09846 -9.03643 
1 -3.6979 -5.38175 -8.91997 
1 -3.72065 -7.07686 -6.98274 
2 -1.93349 -5.23591 -7.14761 
2 -0.0942063 -7.17616 -7.32988 
1 -0.14043 -7.1198 -10.8434 
2 -0.133154 -5.18417 -9.0656 
2 3.58503 -6.99977 -10.6612 
1 1.82381 -5.47476 -10.6389 
1 1.64374 -7.22397 -9.0202 
1 3.56593 -5.24127 -8.92961 
1 3.42289 -7.14074 -7.19023 
2 1.77171 -5.22994 -7.31126 
1 7.19649 -7.00405 -10.6024 
1 5.37595 -5.35113 -10.6145 
1 5.31767 -7.07432 -8.74658 
1 7.02661 -5.22967 -8.76278 
1 7.0574 -7.00561 -7.06166 
1 5.16582 -5.36052 -7.04923 
1 8.88265 -4.95432 -10.5908 
1 10.696 -4.93425 -8.98755 
1 10.8181 -6.87137 -7.00522 
2 8.90635 -6.78993 -8.59244 
1 8.92257 -5.16174 -6.92723 
1 -12.4964 -1.75404 -7.00395 
1 -10.8131 -1.84284 -8.81905 
1 -9.23131 -1.72396 -10.7523 
1 -10.627 -3.44407 -7.05887 
1 -8.98193 -3.47696 -8.96415 
1 -8.99091 -1.67459 -7.23492 
1 -9.00217 -0.111037 -8.99308 
1 -10.7478 -0.0614563 -7.04948 
1 -7.0983 -3.48221 -10.6378 
1 -5.53747 -1.64181 -10.8032 
1 -7.11549 -1.80912 -8.96341 
1 -5.30503 -3.55719 -8.97191 
1 -7.18342 -3.51321 -7.29074 
1 -5.43208 -1.80529 -7.16196 
1 -7.41088 -0.0177842 -10.7972 
1 -7.20819 0.0745497 -7.30391 
1 -3.64627 -0.000411713 -10.7415 
1 -0.193738 -0.128212 -7.11596 
1 -3.73351 -3.49752 -10.6154 
1 -1.95048 -1.69032 -10.716 
1 -3.72882 -1.66128 -8.91609 
2 -2.01604 -3.37673 -9.01006 
1 -3.75799 -3.52278 -7.04991 
1 -1.93627 -1.77728 -7.15028 
1 -0.175989 -3.5443 -10.7712 
1 -0.049666 -1.80479 -8.90726 
1 -0.0245729 -3.37094 -7.10225 
1 -0.0420287 -0.0401967 -10.6792 
1 3.51479 -3.61506 -10.8008 
1 1.62668 -1.77187 -10.8319 
1 1.72848 -3.39751 -9.07039 
2 3.60781 -1.88126 -8.95893 
1 3.51368 -3.5467 -7.0369 
1 1.76336 -1.7786 -7.08829 
2 1.75752 -0.0626072 -8.93663 
1 3.54799 -0.0614269 -10.707 
1 7.09449 -3.60236 -10.6964 
1 5.34979 -1.76982 -10.7109 
1 7.13853 -1.98268 -8.88809 
1 5.36168 -3.64085 -8.80011 
1 7.01178 -3.58463 -6.89361 
1 5.20986 -1.91566 -7.12607 
2 7.36258 0.128338 -10.8658 
1 8.81325 -1.8913 -10.6164 
1 10.7983 -3.49159 -6.86081 
1 8.74447 -3.59569 -8.69462 
2 8.80662 -1.84363 -6.98256 
2 10.6698 -1.81412 -8.81882 
1 12.5904 -1.77456 -7.03936 
1 8.79889 -0.155735 -8.8462 
1 -1.75507 -14.0627 -5.12778 
1 0.198077 -12.6805 -5.60299 
2 -0.0253414 -14.2258 -3.49359 
1 3.45458 -12.3035 -5.65119 
2 1.92094 -12.617 -3.69663 
1 -10.7979 -8.69283 -5.16219 
1 -9.09088 -10.4604 -5.21558 
2 -8.84911 -8.91067 -3.41309 
1 -5.33321 -12.4436 -3.49062 
1 -7.23162 -10.7561 -3.42439 
1 -5.54897 -10.7042 -5.26139 
1 -7.32563 -8.83174 -5.19866 
1 -5.42318 -8.91532 -3.52942 
1 -3.60614 -12.4382 -5.35758 
1 -1.96743 -12.5081 -3.47927 
2 -1.77573 -10.8712 -5.52519 
1 -3.51163 -10.7162 -3.51362 
1 -3.67235 -8.82893 -5.37589 
2 -1.89058 -8.90767 -3.6184 
1 -0.0220542 -8.97337 -5.51607 
2 -0.0752487 -10.8344 -3.68522 
1 1.67406 -10.6226 -5.39013 
1 3.49044 -10.6744 -3.7848 
1 3.47805 -9.0145 -5.43666 
1 1.69033 -8.95735 -3.58435 
1 5.00569 -12.5596 -3.5613 
2 7.08275 -10.767 -3.74842 
1 5.28066 -10.6755 -5.54063 
1 7.11549 -8.90789 -5.47174 
2 5.34675 -8.96745 -3.63724 
1 8.99027 -10.6587 -5.31696 
2 8.84735 -8.77862 -3.63923 
1 10.6531 -8.76563 -5.41947 
1 -12.6677 -5.28854 -3.37761 
1 -10.8084 -6.99787 -3.31716 
1 -10.9181 -5.30609 -5.2832 
2 -8.99188 -7.0612 -5.06409 
1 -8.97843 -5.29102 -3.41839 
1 -7.07109 -7.04837 -3.51014 
1 -7.0929 -5.2421 -5.11145 
1 -5.52408 -7.0077 -5.2828 
1 -5.33842 -5.37602 -3.48438 
1 -1.86336 -7.20274 -5.36749 
1 -3.6701 -7.13578 -3.51382 
1 -3.71803 -5.35208 -5.29975 
1 -1.79975 -5.39125 -3.63456 
2 -0.0299685 -5.29425 -5.35621 
1 0.0159586 -7.20783 -3.72428 
2 1.89697 -7.29151 -5.3642 
1 3.56807 -7.1943 -3.63622 
1 3.47239 -5.31651 -5.41349 
1 1.72014 -5.3223 -3.69455 
1 6.92347 -7.06832 -3.64949 
1 5.19868 -7.15686 -5.38736 
1 7.00326 -5.23004 -5.30749 
1 5.26667 -5.32376 -3.71776 
1 10.7027 -7.14354 -3.66153 
1 10.9318 -5.22725 -5.22475 
2 8.76574 -6.94882 -5.39748 
2 8.82213 -5.32542 -3.46519 
1 12.6164 -5.34191 -3.30765 
1 -14.1655 -3.45265 -3.41596 
1 -12.6157 -3.4966 -5.23828 
2 -12.5656 -1.65899 -3.52873 
1 -10.7842 -1.79477 -5.28083 
2 -10.7738 -3.5783 -3.49109 
1 -8.95441 -3.52942 -5.30633 
2 -9.06907 -1.76606 -3.43853 
2 -7.09515 -1.79318 -5.47732 
1 -7.21445 -3.56915 -3.48457 
1 -5.37973 -3.64494 -5.38031 
1 -5.34543 -1.86686 -3.51134 
1 -3.68539 -1.75734 -5.38994 
1 -1.79744 -3.58131 -5.31586 
1 -3.6869 -3.54345 -3.56915 
1 -1.94582 -1.57819 -3.63726 
1 -0.0325368 -3.50886 -3.61883 
1 -0.0303792 -1.75446 -5.33173 
1 -0.132802 0.126546 -3.60214 
1 -1.79975 -0.00843426 -5.50926 
1 1.79089 -0.112943 -5.40985 
1 1.72897 -3.57188 -5.24332 
1 3.57441 -1.75979 -5.34559 
1 3.4977 -3.5556 -3.61075 
2 1.77117 -1.74277 -3.53796 
1 7.0753 -1.8806 -5.25121 
1 6.99548 -3.57323 -3.55638 
1 5.23815 -3.56105 -5.28587 
1 5.26435 -1.71805 -3.51699 
1 10.788 -1.88433 -5.16469 
1 10.6647 -3.68942 -3.49191 
1 8.95182 -3.57072 -5.25243 
1 8.85598 -1.78036 -3.6072 
1 12.4044 -1.70746 -3.36592 
2 12.7628 -0.14804 -5.23942 
2 12.7309 -3.49523 -5.05978 
2 14.2799 -3.0483 -3.06464 
2 14.2688 -0.0718405 -3.40156 
2 -7.2286 -12.4228 -1.44454 
1 -1.8581 -14.3729 -1.73338 
1 -3.68449 -14.2436 0.375267 
1 -1.42746 -14.4439 1.21772 
1 -3.74094 -12.4875 -1.7938 
1 0.243243 -14.5877 -0.4151 
1 2.04265 -14.3432 -1.82525 
1 3.67859 -14.4915 0.371557 
2 1.48358 -14.2557 1.66355 
1 4.7428 -14.2239 -1.70282 
1 -10.685 -10.794 0.336847 
1 -10.6896 -8.96115 -1.5679 
1 -9.03519 -10.8008 -1.55598 
1 -8.85145 -8.88239 0.129218 
2 -10.9039 -8.80014 1.76291 
2 -8.98566 -10.8158 1.852 
2 -7.14906 -12.6367 1.72246 
1 -5.32308 -12.6723 0.0897292 
1 -7.2199 -10.5579 0.167862 
2 -5.37803 -10.5944 -1.68168 
2 -5.27554 -10.6751 1.70717 
1 -7.19702 -8.91197 -1.62287 
1 -7.19907 -8.85908 1.77738 
1 -5.43005 -8.83253 -0.00922298 
1 -3.48409 -12.2942 1.62017 
1 -1.88486 -12.4688 -0.0433903 
1 -3.52442 -10.7273 -0.140834 
1 -1.86756 -10.6262 -1.72361 
1 -1.76158 -10.5074 1.69649 
1 -3.61361 -8.94378 -1.72495 
1 -3.50979 -8.84653 1.74016 
1 -1.88179 -8.88944 0.0378735 
2 -0.141286 -12.5027 -1.82066 
1 3.36053 -12.4427 1.70192 
1 -0.145085 -12.3057 1.52819 
1 -0.0153812 -8.90777 -1.78996 
1 -0.106497 -10.6799 -0.117644 
1 -0.0340699 -8.85422 1.72487 
2 1.77766 -12.4619 -0.084281 
1 3.48503 -12.2589 -1.83743 
1 3.51281 -10.6324 -0.0697011 
1 1.77493 -10.6245 -1.9397 
1 1.65777 -10.6655 1.6937 
1 3.46862 -8.88179 -1.87324 
1 3.5062 -8.95547 1.66685 
1 1.69055 -8.94392 -0.0757135 
1 5.17311 -12.5238 0.0406352 
2 6.84144 -12.4659 -1.63083 
1 7.07234 -12.4363 1.57033 
1 6.97198 -10.5675 -0.0831909 
1 5.30011 -10.6938 -1.88097 
1 5.22063 -10.7242 1.676 
1 7.0804 -8.85668 -1.94308 
2 6.97962 -8.92765 1.74067 
1 5.33199 -8.92458 -0.227229 
1 8.83782 -11.9597 -0.0927196 
1 8.94896 -10.9295 -2.23327 
1 10.6644 -9.06676 -1.75757 
1 10.6597 -9.02505 1.5828 
2 8.91013 -9.10495 -0.178979 
1 8.90254 -10.6609 1.87552 
1 -12.5436 -5.21219 0.285727 
1 -12.482 -7.06745 -1.59439 
2 -10.5988 -7.075 0.0355324 
1 -10.6674 -5.20414 -1.60748 
1 -10.6103 -5.36565 1.82782 
1 -8.94741 -7.11325 -1.76331 
1 -8.95403 -7.13391 1.75022 
1 -8.88359 -5.23669 -0.0165984 
1 -7.2573 -7.20719 -0.0584199 
1 -7.18851 -5.41422 -1.75124 
1 -5.34054 -7.1155 -1.79095 
2 -7.22478 -5.46268 1.84855 
1 -5.42612 -7.03549 1.57945 
1 -5.38275 -5.46498 -0.0607803 
1 -3.67401 -7.22321 -0.0855221 
1 -1.73905 -7.06892 -1.81847 
1 -1.76629 -7.00358 1.66182 
1 -3.58085 -5.33533 -1.81403 
1 -3.67003 -5.28551 1.64957 
2 -1.77678 -5.35625 -0.0878434 
1 0.0643739 -5.38274 -1.82599 
1 0.0866157 -7.02165 -0.0222688 
1 0.0387865 -5.2713 1.77443 
1 3.46101 -7.14547 -0.020908 
2 1.73328 -7.14886 -1.87727 
1 1.71771 -7.18442 1.71401 
2 3.6595 -5.44144 -1.83694 
1 3.57726 -5.43774 1.66112 
1 1.68835 -5.34868 -0.0250092 
1 7.04343 -7.24212 -0.0538702 
1 5.41732 -7.18912 -1.83103 
1 7.04815 -5.30772 -1.82121 
1 5.21563 -7.27215 1.68162 
2 7.10489 -5.39079 1.7427 
1 5.29555 -5.35044 -0.00386871 
1 10.5751 -7.2133 -0.0601221 
1 10.5432 -5.32827 1.70331 
1 10.7134 -5.33682 -1.79768 
1 8.81362 -7.07736 -1.6615 
1 8.85823 -7.17856 1.72535 
1 8.91352 -5.29293 -0.0489238 
1 12.3233 -7.15147 1.47703 
1 12.2466 -7.29289 -1.86155 
2 12.5436 -5.33247 -0.271491 
1 -14.2381 -3.49614 0.0848694 
2 -14.2803 -1.69276 -1.69858 
1 -14.1116 -1.75545 1.89634 
1 -12.5468 -3.56503 -1.55371 
1 -12.3683 -3.50164 1.82215 
1 -12.6042 -1.68202 0.12688 
1 -10.7014 -3.39783 0.083014 
1 -10.7979 -1.79864 -1.58242 
1 -10.7133 -1.66908 1.74351 
1 -8.93051 -3.4994 -1.67822 
2 -8.99565 -3.53182 1.81153 
1 -8.85859 -1.64011 -0.0389388 
2 -9.0162 0.0921728 1.83734 
1 -7.19737 -3.55099 -0.0551386 
1 -7.16342 -1.81554 -1.93811 
1 -7.18347 -1.76878 1.7939 
1 -5.29089 -3.61762 -1.68919 
2 -5.33578 -3.43241 1.7181 
2 -5.45959 -1.67851 -0.195057 
1 -5.32707 0.0580384 -1.81331 
1 -3.56459 -3.50098 -0.0471188 
1 -3.55989 -1.69473 -1.89784 
2 -1.82964 -3.50625 -1.94352 
2 -3.55726 -1.68561 1.71996 
1 -1.70711 -3.49099 1.72 
1 -1.82888 -1.7636 -0.0526985 
1 -0.088293 -3.43206 -0.0556992 
1 -0.0162753 -1.65608 -1.81689 
1 -0.0187032 -1.65997 1.71219 
1 -1.83228 0.11656 -1.79654 
1 -1.81748 0.0697868 1.86429 
2 3.5447 -3.52508 0.00542331 
2 1.78497 -3.51763 -1.75121 
1 3.54336 -1.81719 -1.8396 
1 1.78269 -3.55214 1.70362 
1 3.66786 -1.92443 1.82652 
1 1.76398 -1.80892 0.00907558 
2 1.78711 0.0208361 1.85721 
1 1.62537 0.0128998 -1.7741 
1 7.10277 -3.54921 0.0436212 
1 7.13203 -1.84122 -1.876 
1 7.1163 -1.78308 1.9287 
1 5.29499 -3.47373 -1.88688 
1 5.38323 -3.55418 1.80977 
2 5.40531 -1.76353 0.0148921 
1 7.19972 -0.0479137 -0.0566631 
1 10.6627 -3.57132 -0.116336 
1 10.7002 -1.83747 1.65504 
1 10.6002 -1.77954 -1.8148 
1 8.75184 -3.55721 -1.76337 
1 8.91213 -3.56243 1.94525 
2 8.82942 -1.85288 0.0578021 
1 12.4186 -3.36716 -1.75559 
1 8.84448 -0.0265539 -1.86678 
2 12.5269 -3.7113 1.65678 
1 12.395 -1.7108 -0.00223075 
2 14.3037 -3.50876 -0.320926 
1 14.5725 -1.26016 -1.16395 
1 14.477 -1.8705 1.53801 
2 12.519 -0.0568577 -1.60325 
1 14.2554 0.445057 0.288257 
2 -5.24751 -12.654 3.50849 
2 -3.03872 -14.2208 3.02158 
1 -0.433882 -14.3441 3.47597 
2 -3.1239 -12.6523 5.17873 
1 3.39121 -14.1261 3.33314 
1 -10.7148 -10.7262 3.65962 
1 -10.9 -8.80028 5.27993 
2 -8.93761 -8.88133 3.53264 
2 -8.77835 -10.9263 5.27657 
1 -7.12368 -10.856 3.59892 
1 -5.2252 -10.7718 5.22516 
1 -7.17986 -8.99726 5.4171 
2 -5.46386 -8.82247 3.57671 
1 -1.74388 -12.2878 3.28193 
1 -1.81533 -10.6027 5.32065 
1 -3.44667 -10.7201 3.56826 
2 -3.45774 -8.8716 5.23333 
1 -1.70709 -8.78155 3.53846 
1 -0.0866553 -8.74747 5.402 
1 3.2814 -12.5691 5.41725 
2 -0.0777356 -12.3162 5.29354 
1 -0.0839941 -10.5917 3.489 
1 1.58349 -12.4551 3.47121 
1 1.63763 -10.5216 5.3619 
2 3.33159 -10.8431 3.57905 
1 3.49751 -8.96745 5.39736 
1 1.81369 -8.85389 3.49843 
1 5.27866 -12.4267 3.21286 
1 7.27601 -10.9783 3.62187 
1 5.34195 -10.7121 5.4526 
2 7.06134 -8.91114 5.32075 
2 5.29581 -9.0246 3.63164 
1 8.96248 -10.4701 5.44808 
2 8.92465 -8.78114 3.53741 
1 -12.384 -5.43273 3.53753 
1 -10.7732 -7.14349 3.50804 
1 -10.758 -5.39751 5.30482 
1 -8.99071 -7.2396 5.42314 
1 -8.98777 -5.40632 3.61795 
1 -7.36398 -7.16891 3.72348 
1 -7.22344 -5.40533 5.38768 
1 -5.25434 -7.11071 5.38824 
2 -5.31608 -5.41987 3.65992 
1 -1.74902 -6.95981 5.36123 
1 -3.61472 -7.13875 3.35498 
1 -3.5922 -5.44674 5.36928 
2 -1.90614 -5.21736 3.49285 
1 0.104784 -7.12073 3.46497 
2 0.0912753 -5.32455 5.25259 
1 1.79823 -7.28169 5.33371 
1 3.51571 -7.1975 3.57389 
1 3.50824 -5.41285 5.27057 
1 1.88924 -5.35074 3.42292 
1 6.99058 -7.13309 3.44004 
1 5.32285 -7.20334 5.36326 
2 7.07479 -5.31032 5.44561 
2 5.21958 -5.36466 3.48972 
2 10.7021 -8.39879 5.33424 
1 10.6731 -6.98082 3.30469 
1 10.7742 -5.51779 5.32647 
1 8.76783 -7.00812 5.32758 
1 8.90479 -5.38418 3.59791 
2 12.5158 -5.5209 3.54627 
1 -13.9564 -3.5368 3.58907 
1 -12.3927 -3.47214 5.50287 
1 -12.2679 -1.76376 3.61807 
1 -10.6358 -1.84868 5.58949 
1 -10.7943 -3.55334 3.69105 
1 -8.97719 -3.76503 5.49392 
2 -9.04908 -1.75177 3.6949 
1 -12.4024 -0.242418 5.56338 
1 -10.6899 0.024384 3.76767 
1 -7.16772 -1.68566 5.4993 
2 -7.12761 -3.58769 3.7634 
1 -5.37268 -3.53749 5.37575 
1 -5.30326 -1.77025 3.59297 
1 -7.19096 -0.089078 3.65729 
2 -3.56242 -1.80889 5.3553 
2 -1.85677 -3.60363 5.42725 
1 -3.70769 -3.48061 3.57423 
1 -1.77363 -1.70519 3.54521 
1 -0.0796337 -1.84244 5.42647 
1 0.0623291 -3.46936 3.53483 
1 1.83052 -0.0509502 5.37175 
1 0.0465228 0.0387236 3.6924 
1 1.75323 -3.53701 5.24326 
1 3.5741 -1.81785 5.35177 
1 3.54031 -3.53285 3.63841 
1 1.80115 -1.85178 3.5729 
1 7.18007 -1.83646 5.41482 
1 7.06828 -3.49284 3.59769 
1 5.25639 -3.6624 5.37384 
1 5.40026 -1.80369 3.65092 
2 7.20769 0.00337113 3.63969 
2 10.8871 -1.77896 5.37025 
1 10.8226 -3.64534 3.42978 
2 8.9648 -3.57469 5.33115 
1 9.01113 -1.76504 3.56789 
1 8.98665 -0.0401291 5.44823 
2 14.1825 0.0719266 3.08087 
2 12.6116 -1.84783 3.33733 
1 12.7247 -3.78923 5.30258 
1 14.3526 -3.72076 3.48072 
1 14.1551 -1.69032 5.21551 
1 -9.08012 -9.07188 7.00698 
1 -5.17326 -9.26984 10.4708 
1 -5.03774 -10.9077 8.6724 
1 -6.94008 -10.9493 6.91134 
2 -6.95642 -9.23215 8.73706 
1 -5.27177 -9.05323 6.91368 
1 -1.44919 -12.4532 7.38789 
2 -1.66263 -8.95085 10.716 
1 -1.72211 -10.5636 8.89096 
1 -3.42926 -10.7591 6.98647 
1 -3.58316 -8.87729 8.72495 
1 -1.86379 -8.73745 7.16394 
1 0.0222549 -8.74187 8.97515 
1 -0.026377 -10.6005 7.21416 
1 1.56922 -12.3355 7.09232 
1 1.81186 -10.6151 8.89856 
1 3.57255 -10.7531 7.25907 
1 3.5735 -8.83167 9.02736 
1 1.75588 -8.96775 7.17248 
1 1.5808 -8.86524 10.8213 
1 7.16826 -10.5232 7.1271 
1 5.59188 -8.76437 10.6975 
1 5.39304 -10.4616 8.96623 
1 7.23516 -8.77774 8.78442 
1 5.28142 -8.80051 7.08298 
1 9.10146 -8.79208 7.08696 
2 -10.5268 -6.96119 7.13482 
1 -10.3524 -5.53113 9.06571 
1 -8.78029 -7.41117 8.91717 
1 -8.66015 -5.50244 7.15317 
1 -8.72557 -5.52772 10.7061 
1 -6.81067 -7.27945 10.8187 
1 -7.05289 -5.62855 9.03261 
1 -5.39269 -7.3903 8.89771 
1 -7.14596 -7.3773 7.22787 
1 -5.51272 -5.49964 7.15774 
1 -5.46547 -5.4277 11.1295 
2 -3.71926 -7.25463 10.7977 
1 -1.87892 -5.31121 10.7526 
1 -1.99214 -7.22771 9.01591 
2 -3.76372 -5.42358 8.96781 
1 -3.65257 -7.04102 7.08307 
1 -1.78847 -5.38984 7.27842 
2 -0.00986894 -5.48104 9.05505 
1 -0.0829497 -7.07873 10.7774 
1 -0.047583 -7.07113 7.16108 
1 3.65382 -7.17127 10.71 
1 1.83532 -5.21536 10.6515 
1 1.81518 -7.13537 8.96934 
1 3.53536 -5.34156 8.9445 
1 3.52679 -7.13949 7.1503 
2 1.78823 -5.50084 7.09821 
1 7.22123 -6.95952 10.4733 
1 5.31919 -5.30902 10.6059 
1 5.29607 -7.11074 8.92133 
1 7.12412 -5.29211 8.83816 
1 7.17749 -7.12289 7.20376 
2 5.34826 -5.38583 7.1993 
1 8.81854 -5.03586 10.5768 
1 10.7784 -4.96672 8.99336 
1 10.8381 -6.95994 7.26465 
1 8.97945 -6.9584 8.8309 
1 8.99047 -5.39714 7.07958 
2 -12.0228 -1.90311 7.48777 
1 -8.94408 -1.78389 10.5796 
1 -10.8367 -3.00854 9.63974 
2 -10.6379 -3.93437 7.26407 
1 -8.62771 -3.80894 9.05274 
2 -9.08333 -1.95262 7.36908 
1 -11.0709 -0.543118 9.79349 
1 -7.15553 -3.58897 10.9027 
1 -5.42686 -1.78227 10.7334 
1 -7.12818 -1.82524 8.97558 
2 -5.53479 -3.62795 8.94764 
1 -7.12974 -3.60202 7.10502 
1 -5.49185 -1.87482 7.14483 
1 -5.52472 0.104602 8.92945 
1 -3.76412 -3.57956 10.6697 
1 -1.77816 -1.65366 10.7203 
1 -3.72772 -1.85098 8.88144 
2 -1.76474 -3.51986 9.0739 
1 -3.75421 -3.74549 7.12757 
1 -1.83104 -1.71268 7.29685 
1 0.13435 -3.51079 10.7424 
1 -1.77127 0.0441683 8.99749 
1 -3.58525 0.0367636 10.6803 
2 -0.0646185 -3.66259 7.26444 
1 0.118252 -1.74504 8.91338 
1 1.84323 -1.78736 7.01901 
2 3.52603 -3.60959 7.17507 
1 1.82105 -1.70646 10.8362 
1 1.86732 -3.4 9.02075 
1 3.63446 -1.74737 8.91118 
1 3.54444 -3.43439 10.6843 
1 3.68391 -0.0452049 7.07417 
1 3.52158 -0.128785 10.724 
1 5.42351 0.00285231 8.87405 
1 7.18515 -0.0595803 7.06573 
1 7.23956 -0.109856 10.7628 
1 7.06454 -1.79118 8.91599 
1 5.32464 -3.63432 8.96233 
1 7.07507 -3.45275 10.5618 
1 5.38665 -1.83719 7.09003 
1 7.10638 -3.53797 7.23935 
1 5.30187 -1.72852 10.6343 
2 10.7098 0.153216 7.24359 
1 10.9917 -3.7272 6.96941 
1 8.9954 -1.94649 10.8439 
2 10.7692 -2.16804 9.00656 
1 8.82018 -3.58509 8.81704 
1 9.04935 -1.79281 7.25045 
2 12.4781 -1.72541 7.15022 
1 -0.051273 -8.63106 12.5388 
1 -0.010586 -5.30124 12.2472 
1 -1.98274 -6.97754 12.6116 
1 -3.56641 -5.15488 12.6449 
1 3.74525 -5.39258 12.4887 
1 2.09938 -5.20791 14.1463 
1 -0.0930107 -6.61371 14.1106 
2 1.83141 -6.99814 12.3906 
1 -5.25535 -3.46621 12.5654 
1 -7.18517 -1.71988 12.514 
1 -5.32447 -0.107708 12.4792 
1 -1.7794 0.0616367 12.4803 
1 -3.58982 -0.238518 14.2317 
1 -1.7873 -3.56017 12.3326 
1 -1.61591 -1.67755 14.1595 
1 -3.56801 -1.84768 12.4874 
2 -0.0285923 -3.73333 13.9714 
1 0.0184073 -1.75194 12.4287 
1 0.150302 0.0831864 14.1974 
1 1.77069 -1.84738 14.1426 
1 1.94917 -3.61092 12.3876 
1 3.7318 -1.7235 12.578 
1 3.4865 0.089118 14.0874 
1 1.72347 -0.0215392 12.3344 
1 5.48619 -0.0261554 12.4277 
1 7.0956 -1.79579 12.3601 
2 5.29525 -3.44089 12.3326 
1 -7.24954 1.64824 -12.6228 
1 -5.40709 3.58591 -12.6548 
1 -5.49265 -0.00852539 -12.7818 
2 -1.75742 1.90669 -14.4891 
2 -3.60085 1.84014 -12.7897 
1 -1.78437 3.64417 -12.5626 
1 0.0273179 3.59727 -14.5063 
2 0.0179094 1.81709 -12.399 
1 -3.64753 0.187508 -14.5741 
2 -1.86102 0.000392181 -12.4526 
1 3.48391 3.71208 -14.2542 
1 3.53591 1.84217 -12.5016 
2 1.72044 3.57434 -12.4641 
1 1.86836 1.8621 -14.3952 
2 0.0859229 0.0975451 -14.4098 
1 5.13611 1.68316 -14.1223 
1 7.16554 2.00255 -12.4849 
1 5.30845 3.6962 -12.4407 
1 9.08586 1.99476 -10.9922 
1 -1.74065 7.08708 -12.5324 
1 -3.54616 5.29844 -12.7215 
1 0.00576502 5.26659 -12.6208 
1 1.72333 7.17428 -12.5144 
1 3.67293 5.4481 -12.26 
1 -12.2824 1.94826 -7.31325 
1 -10.9076 2.99215 -9.33238 
1 -9.18423 1.76898 -10.8458 
2 -8.6725 3.79303 -9.02927 
2 -9.19483 1.89938 -7.28577 
1 -10.7768 3.8746 -7.18616 
1 -11.2422 0.630838 -9.46608 
1 -7.0926 3.43036 -11.1082 
2 -5.33543 1.69474 -10.8636 
2 -7.28407 1.8494 -9.13812 
1 -5.46405 3.63668 -8.94859 
1 -7.17815 3.63678 -7.06421 
2 -5.51108 1.79188 -7.14926 
1 -5.49604 0.0569586 -9.07384 
1 -3.68805 3.59712 -10.8125 
1 -1.91786 1.7804 -10.873 
1 -3.73527 1.71924 -9.04181 
2 -1.95073 3.48331 -9.0693 
2 -3.71843 3.59831 -7.11567 
1 -1.82134 1.84987 -7.14452 
1 -0.148208 3.51585 -7.19159 
1 -0.085451 1.73275 -8.9424 
1 -0.144274 3.50944 -10.7111 
1 -3.63604 0.113551 -7.14051 
1 -1.81823 -0.00822742 -8.93319 
1 3.49763 3.51743 -10.6956 
1 1.76333 1.82377 -10.5521 
1 3.53799 1.67344 -8.90677 
2 1.79104 3.60248 -8.83266 
1 3.46107 3.54042 -7.06397 
2 1.67846 1.68388 -7.13953 
1 3.53886 -0.0292159 -7.14735 
2 7.13986 3.55713 -10.5401 
1 5.23349 1.72833 -10.7322 
1 7.23045 1.79206 -8.82915 
1 5.22723 3.53949 -8.92712 
1 7.09386 3.55635 -7.10516 
1 5.22214 1.85142 -7.11305 
2 5.33277 -0.0167588 -8.95064 
2 6.97454 -0.0554195 -7.07528 
2 10.5433 1.69684 -8.84873 
1 8.96993 3.47869 -8.75126 
1 8.75237 1.78081 -7.07364 
1 10.7053 3.65673 -7.02127 
2 12.3755 1.8866 -6.76871 
2 10.6403 0.00976734 -6.97184 
1 10.311 -0.040211 -10.7824 
1 -10.568 5.62171 -9.13796 
1 -10.6396 7.20208 -7.13308 
1 -8.78486 7.12065 -8.84346 
1 -8.87433 5.45837 -7.09502 
1 -8.63051 5.58381 -10.7845 
2 -5.60379 5.45211 -10.7696 
1 -7.13999 7.38483 -10.7603 
1 -7.06738 5.42838 -8.85457 
1 -5.4292 7.27528 -8.92797 
2 -7.01111 7.26922 -7.09262 
1 -5.35528 5.42442 -7.00055 
2 -3.6796 7.26725 -10.9509 
1 -1.84864 5.28817 -10.8427 
1 -1.91214 7.26498 -8.93355 
2 -3.73361 5.52992 -9.00316 
1 -3.5454 7.12144 -7.11967 
1 -1.80557 5.31205 -7.07928 
1 -0.0268174 7.05679 -10.7755 
2 -0.0811639 5.36466 -8.9494 
1 -0.0750202 7.25087 -7.20902 
1 3.38772 7.22702 -10.8602 
1 1.66618 5.287 -10.7315 
2 1.64077 7.16716 -8.92336 
1 3.53506 5.37888 -8.89095 
1 3.45635 7.14942 -7.18261 
1 1.65305 5.37008 -7.0737 
1 7.0514 7.08174 -10.6307 
1 5.46744 5.3532 -10.6346 
1 7.11277 5.37144 -8.88235 
1 5.2482 7.09287 -9.01263 
1 7.13111 7.21279 -7.21261 
1 5.30692 5.32826 -7.22274 
1 8.90699 5.27656 -10.487 
1 10.6392 5.39129 -8.68751 
1 8.81297 7.15756 -8.86336 
1 8.79792 5.36221 -7.11062 
2 10.4383 7.09119 -7.05291 
1 -8.95898 9.05898 -7.05025 
1 -5.17803 9.14917 -10.547 
1 -5.39071 10.7104 -8.82842 
1 -7.22781 9.07521 -8.88948 
1 -5.27885 8.88937 -6.99751 
1 -7.15944 10.7188 -6.84051 
2 -1.78042 8.87101 -10.7311 
2 -1.80945 10.5867 -8.90674 
1 -3.68685 10.7031 -7.12987 
1 -3.65017 8.86838 -8.78963 
1 -1.77799 8.95252 -7.20426 
1 0.00632145 8.97317 -8.95678 
1 -0.138448 10.6798 -7.04065 
1 -0.0447991 12.2947 -8.79977 
1 1.63297 8.93951 -10.8549 
1 1.88055 10.6802 -9.0829 
1 3.66293 10.6218 -7.21789 
1 3.50156 8.89502 -9.02922 
1 1.73914 8.93811 -7.19034 
1 5.24205 8.88992 -10.6741 
1 5.19248 10.646 -8.96865 
1 7.14459 10.7962 -7.12508 
1 7.06641 8.98956 -9.00948 
1 5.36296 8.8499 -7.3322 
1 8.80094 8.99831 -7.07299 
1 -1.74403 12.4521 -7.0634 
2 1.64022 12.1608 -7.11971 
2 -14.069 3.46404 -3.53847 
2 -12.5121 3.71144 -5.39119 
1 -14.2472 0.205374 -3.52767 
1 -12.6927 0.173602 -5.31837 
1 -12.3522 1.89428 -3.3601 
2 -10.7978 1.92807 -5.29891 
1 -10.8223 3.63174 -3.45862 
1 -8.94296 3.75443 -5.32988 
2 -8.99975 1.91144 -3.38588 
1 -10.9098 0.0550898 -3.49671 
2 -9.00901 0.0214673 -5.40814 
1 -7.24826 1.86795 -5.35683 
2 -7.20397 3.68452 -3.46602 
1 -5.55363 3.69439 -5.23254 
1 -5.32425 1.7785 -3.6164 
2 -7.13508 0.0608773 -3.4717 
1 -5.35636 -0.10712 -5.38121 
1 -3.60862 1.87897 -5.44555 
1 -1.89429 3.59937 -5.46516 
1 -3.70037 3.60425 -3.57955 
1 -1.91519 1.83468 -3.73293 
1 -0.0667322 3.60362 -3.62157 
1 -0.176 1.88884 -5.35176 
1 -3.6327 0.0529749 -3.67069 
1 3.62269 1.72618 -5.41005 
2 1.73352 3.6206 -5.36527 
1 3.55789 3.62772 -3.59242 
2 1.76779 1.7365 -3.63166 
1 3.55603 0.0140119 -3.44051 
1 5.18562 -0.0770175 -5.22472 
1 7.06659 0.0571138 -3.65272 
1 6.94441 1.84781 -5.28274 
1 7.20201 3.56927 -3.4993 
1 5.25726 3.64867 -5.48651 
1 5.24554 2.00069 -3.62272 
1 10.6143 1.79359 -5.20666 
1 10.7853 3.63951 -3.6638 
2 8.86966 3.5516 -5.30139 
1 8.90503 1.87753 -3.53522 
1 12.5149 1.79217 -3.79952 
1 12.5562 3.80836 -5.39221 
1 8.90438 0.0431932 -5.22584 
1 10.6823 0.0397409 -3.479 
1 14.0903 3.7442 -3.45894 
1 -12.5151 5.47195 -3.62419 
1 -10.7006 7.13088 -3.41519 
1 -10.6315 5.33431 -5.18909 
2 -8.89314 7.25901 -5.22019 
1 -8.92376 5.46497 -3.46775 
1 -7.11071 7.10446 -3.41411 
1 -7.06034 5.38542 -5.24324 
1 -5.32816 7.13912 -5.16431 
1 -5.41497 5.34784 -3.48066 
1 -1.82417 7.063 -5.37639 
1 -3.59387 7.16918 -3.50777 
1 -3.61025 5.36518 -5.38611 
1 -1.79775 5.34581 -3.5802 
1 -0.107047 5.3035 -5.41448 
2 -0.152478 7.14965 -3.5437 
1 1.72098 7.21507 -5.4542 
2 3.46643 7.06976 -3.5429 
1 3.46145 5.35539 -5.40855 
1 1.80249 5.35758 -3.71565 
1 7.00205 7.21936 -3.49185 
1 7.05067 5.37225 -5.40015 
2 5.30283 7.11317 -5.4527 
1 5.39428 5.37938 -3.69202 
1 10.6146 7.21439 -3.59478 
1 10.8231 5.50077 -5.28802 
1 8.76014 7.18871 -5.19819 
1 8.86317 5.39195 -3.55327 
2 12.4667 5.56633 -3.39608 
1 -10.761 8.79066 -5.13247 
1 -8.99506 10.4928 -5.12959 
1 -8.90784 8.74605 -3.37325 
1 -10.6267 10.4065 -3.34613 
1 -7.19319 10.5834 -3.4652 
1 -5.31695 10.6507 -5.21362 
1 -7.0875 9.01089 -5.15875 
1 -5.4533 8.90611 -3.44581 
1 -1.76304 10.6325 -5.32514 
1 -3.6357 10.5972 -3.65293 
2 -3.49922 8.85018 -5.38886 
1 -1.90153 8.9268 -3.49441 
1 -0.163881 8.90517 -5.37391 
1 -0.0922492 10.6507 -3.56837 
1 -1.77228 12.3989 -3.53568 
2 1.77026 10.5685 -5.38633 
1 3.48023 10.5868 -3.56322 
1 3.5463 8.8904 -5.47133 
1 1.76121 8.92248 -3.59787 
1 3.56346 12.4691 -5.32598 
1 7.22391 10.7598 -3.59599 
2 5.35792 10.7502 -5.44214 
1 7.17177 8.94996 -5.36752 
2 5.36577 8.979 -3.52831 
1 5.4478 12.522 -3.64042 
1 10.5987 8.96931 -5.43572 
1 8.8736 10.6427 -5.26942 
1 8.8665 8.90128 -3.51028 
1 -5.33569 12.359 -3.43626 
1 -3.47212 12.3396 -5.32967 
1 -0.158328 12.3656 -5.32724 
1 -3.60056 13.9993 -3.54646 
1 -0.155647 14.1605 -3.65021 
1 1.74431 12.3661 -3.46736 
2 1.6787 13.944 -5.25489 
1 3.61334 14.2651 -3.69287 
1 -14.237 3.48859 0.0751134 
1 -14.225 1.82373 -1.64231 
1 -14.2936 1.77356 2.00217 
1 -14.3329 0.0647669 0.0514986 
1 -12.3733 1.81038 0.0612532 
1 -12.5953 0.0744488 -1.68241 
2 -12.4342 0.127041 1.9009 
1 -12.5057 3.67302 -1.70527 
2 -12.512 3.51159 1.99817 
2 -10.6832 3.64057 0.144671 
1 -10.6158 1.92306 -1.57872 
1 -10.6425 1.84299 1.9804 
1 -8.89086 3.66063 -1.66105 
1 -8.89051 3.62236 1.90429 
1 -8.84013 1.75325 0.0576513 
1 -10.7357 0.07984 -0.0549186 
1 -8.9911 -0.062127 -1.71297 
2 -5.44222 0.0986663 1.89428 
1 -7.11326 3.54009 0.0369197 
1 -7.23711 1.85505 -1.61338 
1 -7.18597 2.00535 1.83804 
1 -5.28866 3.67496 -1.80043 
1 -5.36226 3.5949 1.92871 
1 -5.29253 1.97758 0.00515301 
1 -7.07782 0.0845969 -0.0177976 
2 -3.60974 3.61953 0.102314 
1 -3.66829 1.83529 -1.78759 
2 -1.78212 3.54141 -1.83156 
1 -3.68077 1.72429 1.79061 
1 -1.85937 3.57006 1.82941 
1 -1.82094 1.88102 0.0435707 
1 -3.47045 0.106705 -0.0178851 
1 -0.043583 1.79651 -1.84182 
1 -0.0462565 1.80393 1.86933 
1 -0.00646993 3.54541 0.148394 
1 -0.160223 0.028834 0.0770844 
2 3.54326 3.63702 0.0645493 
1 3.5358 1.82115 -1.69806 
2 1.72429 3.65442 -1.86815 
1 3.62785 1.85365 1.83578 
1 1.7253 3.5761 1.98069 
2 1.65732 1.7225 -0.00574559 
2 3.45443 0.0411379 -0.127283 
1 7.12034 3.67406 0.0480662 
1 7.20064 1.8094 -1.90824 
1 6.98822 1.98291 1.76929 
1 5.32004 3.57539 -1.88722 
1 5.32187 3.76913 1.89008 
2 5.40536 1.82305 -0.020514 
1 5.29312 -0.0265618 -1.78271 
1 5.34414 -0.106288 1.86994 
1 10.4881 3.70481 0.0922462 
1 10.513 1.99353 1.69744 
2 10.7826 1.92069 -1.80886 
1 8.9173 3.64075 -1.87927 
1 8.7919 3.60954 1.81567 
1 8.76821 1.92712 -0.00556058 
2 8.82564 0.168363 1.79389 
1 10.5481 0.197878 -0.144082 
1 12.4236 1.99647 0.121313 
1 12.376 3.56456 -1.8573 
1 12.5384 3.89078 1.67793 
1 14.1473 3.7154 -0.283141 
2 14.1161 1.81338 -1.83181 
1 14.4446 2.30296 1.76124 
1 12.2993 0.125188 1.53722 
1 -12.5597 6.9401 -1.60328 
1 -12.57 5.37667 0.134346 
1 -12.3925 7.11761 1.87674 
1 -10.8563 7.1305 0.059134 
1 -10.6562 5.3809 -1.70144 
1 -10.7676 5.29496 1.84289 
1 -8.87425 7.17244 -1.55597 
2 -9.04894 7.05825 1.80721 
1 -8.83507 5.46587 0.0791926 
1 -7.19139 7.17031 0.0635598 
1 -7.03737 5.27402 -1.60852 
2 -5.32835 7.02838 -1.57946 
1 -7.14364 5.37218 1.85234 
1 -5.40037 7.04488 2.0134 
1 -5.35532 5.31625 0.177967 
1 -3.6532 7.04572 0.13145 
1 -1.9334 7.18856 -1.67769 
1 -1.74259 7.17191 1.96962 
1 -3.61062 5.40252 -1.69402 
1 -3.52717 5.41589 1.84286 
2 -1.7509 5.44397 0.14717 
1 -0.146359 5.41709 -1.75008 
1 0.0523749 7.28698 0.107274 
1 -0.0405169 5.30057 1.75303 
1 3.45999 7.06348 -0.000725897 
1 1.67252 7.06578 -1.70917 
2 1.76633 7.15099 1.87022 
1 3.50792 5.34831 -1.87413 
2 3.42572 5.32418 1.79315 
1 1.58273 5.36899 0.0441422 
1 6.97985 7.12091 -0.0734224 
1 7.05109 5.26248 -1.81667 
2 5.22014 7.11652 -1.75012 
1 7.16607 5.43059 1.72337 
1 5.42525 7.12856 1.82582 
1 5.39639 5.31551 0.0431176 
1 10.5323 7.10326 -0.147723 
1 10.4713 5.41489 1.71763 
1 10.5731 5.36059 -1.9029 
1 8.82519 7.1711 -1.80053 
2 9.01324 7.33302 1.81069 
1 8.74401 5.4892 -0.0192117 
2 11.9122 7.32533 1.85998 
1 12.3652 5.39498 -0.0703725 
1 12.5681 7.28491 -1.69375 
2 -8.83931 10.6257 -1.7118 
1 -8.92154 10.8137 1.65105 
2 -10.7589 8.90288 -1.52503 
1 -10.7917 9.07415 1.5792 
1 -8.93812 8.95945 0.0365921 
1 -7.09121 10.6572 0.0135488 
1 -5.37051 10.7031 1.81077 
1 -5.37631 10.6897 -1.71639 
1 -7.06373 8.92497 -1.64163 
1 -6.96864 8.91046 1.72426 
1 -5.2266 8.92551 0.123794 
1 -7.21723 12.5011 -1.69426 
2 -5.33056 12.4593 0.0404874 
1 -3.44419 10.7616 0.0853359 
2 -1.7529 10.7519 1.87989 
1 -1.8261 10.7688 -1.82228 
1 -3.64598 9.00151 -1.70817 
2 -3.60746 8.98669 1.92024 
1 -1.81641 8.96732 0.0288772 
1 0.0466868 10.624 0.0276501 
1 0.026634 8.98051 1.84235 
2 0.0222812 8.9549 -1.74603 
1 -1.75934 12.472 -0.0686401 
1 -3.48861 12.3832 -1.81395 
1 3.59961 10.8042 -0.049411 
1 1.8895 10.7081 1.82444 
1 1.75056 10.6881 -1.84127 
1 3.43935 8.91355 -1.75613 
1 3.6103 8.87966 1.88659 
1 1.84804 8.99464 0.108721 
2 1.83726 12.4742 -0.0844222 
1 3.74554 12.6625 1.76637 
1 7.11108 10.7608 -0.0187924 
1 5.2016 10.6584 1.8517 
2 5.31812 10.7337 -1.78328 