ITEM: TIMESTEP
1840000
ITEM: NUMBER OF ATOMS
1289
ITEM: BOX BOUNDS pp pp pp
-100 100
-100 100
-100 100
ITEM: ATOMS type x y z 
1 -1.87307 -6.93184 -12.4115 
1 -3.55561 -5.20331 -12.5273 
1 -0.0246577 -5.22405 -12.5044 
1 1.6146 -7.03354 -12.4383 
1 3.55881 -5.35622 -12.4187 
1 -7.13965 -1.7721 -12.2405 
2 -5.5015 -3.52925 -12.3189 
2 -1.82939 -1.89422 -14.2669 
2 -3.73652 -1.8553 -12.3337 
1 -1.81135 -3.60496 -12.3629 
1 -0.108751 -1.77833 -12.3025 
1 0.240933 -3.34449 -14.1871 
2 3.27729 -3.55109 -14.1738 
1 1.83552 -3.47619 -12.3628 
1 3.49073 -1.75201 -12.3663 
1 1.82465 -1.70181 -14.3022 
2 3.35519 0.103817 -14.507 
1 5.09424 -1.7094 -14.4339 
2 7.10293 -1.72362 -12.4698 
2 5.26261 -3.49347 -12.7162 
2 5.21221 0.0538467 -12.5756 
1 -9.33913 -8.88736 -7.26845 
2 -5.3778 -10.4953 -8.76303 
1 -5.46074 -8.81688 -10.5891 
1 -7.42352 -8.88994 -8.87745 
1 -5.46575 -8.81013 -7.03256 
1 -7.25748 -10.5078 -6.98985 
1 -1.91592 -12.4801 -7.2298 
1 -2.01503 -10.752 -9.07301 
1 -1.92903 -8.83764 -10.7383 
1 -3.70964 -10.6413 -6.96721 
2 -3.50896 -8.86351 -8.7858 
1 -1.92999 -8.74966 -7.05234 
1 -0.216421 -8.78853 -8.9557 
1 -0.0148533 -10.4478 -10.5558 
2 -0.0959252 -10.5902 -7.38492 
1 1.62261 -12.4244 -7.36429 
1 1.73624 -8.81765 -10.8272 
2 1.89496 -10.452 -8.99355 
1 3.71348 -10.8002 -7.28017 
2 3.70693 -8.79265 -8.92573 
1 1.84779 -8.9576 -7.21515 
1 5.35767 -10.6442 -9.02234 
1 7.19131 -8.86385 -8.91911 
1 5.42049 -8.86504 -7.16499 
1 7.07652 -10.759 -6.95246 
1 5.50896 -8.79369 -10.633 
1 8.97704 -9.06695 -7.2888 
1 -10.9331 -5.30566 -9.09095 
1 -8.89808 -5.24771 -10.5768 
1 -9.11383 -7.07923 -9.01974 
2 -9.04926 -5.28331 -7.13306 
2 -10.9675 -6.91994 -7.09591 
1 -7.00932 -7.03667 -10.4369 
1 -5.47889 -5.29136 -10.4993 
1 -7.19809 -5.35872 -8.71563 
1 -5.35592 -7.13401 -8.73638 
2 -7.21397 -7.20851 -7.11792 
1 -5.43903 -5.18946 -7.12086 
2 -3.76272 -7.03479 -10.7301 
1 -1.85874 -5.31629 -10.6797 
1 -1.97681 -7.00925 -8.87336 
1 -3.6538 -5.35034 -8.86651 
1 -3.7596 -7.08142 -7.07895 
2 -1.92333 -5.26153 -7.12842 
1 -0.123045 -7.16628 -10.7525 
2 -0.0681867 -5.34882 -9.07538 
2 -0.0207855 -7.19704 -7.18724 
2 3.48755 -7.10086 -10.7359 
1 1.72925 -5.31385 -10.6757 
1 1.78341 -7.33693 -9.00684 
1 3.60572 -5.25931 -9.05707 
1 3.69638 -7.09552 -7.2186 
2 1.86154 -5.32731 -7.27791 
1 7.2744 -6.93682 -10.681 
1 5.37304 -5.28534 -10.7568 
1 5.40386 -7.04316 -8.98602 
1 7.14368 -5.17937 -8.81907 
1 7.15317 -6.98433 -7.25784 
1 5.45248 -5.31778 -7.11068 
1 8.89336 -5.20177 -10.5334 
1 10.7693 -5.16509 -8.9838 
1 10.7953 -6.88805 -7.22692 
2 8.93987 -6.93378 -8.76679 
1 8.92677 -5.0868 -7.13871 
1 -12.4437 -1.79737 -7.16025 
1 -10.7891 -1.74014 -8.85858 
1 -9.11032 -1.83698 -10.6003 
1 -10.8429 -3.57526 -7.21673 
1 -8.96097 -3.56601 -8.89572 
1 -9.11792 -1.65092 -7.0796 
1 -10.6954 0.142047 -10.44 
1 -10.9288 0.201553 -7.24635 
1 -9.04375 0.162632 -8.85773 
1 -7.12842 -3.58258 -10.5928 
1 -5.38244 -1.70298 -10.5538 
1 -7.26975 -1.67887 -8.81958 
1 -5.5117 -3.46073 -8.86052 
1 -7.13144 -3.47154 -7.12133 
1 -5.3683 -1.74921 -7.08503 
1 -7.29782 -0.132568 -10.6334 
1 -7.12822 0.0261355 -7.10009 
1 -5.42076 -0.0315856 -8.85646 
1 -3.76827 -3.65088 -10.5648 
1 -1.97289 -1.72088 -10.6885 
1 -3.66277 -1.74616 -8.84146 
2 -1.83346 -3.50247 -9.05531 
1 -3.70283 -3.44355 -7.17108 
1 -1.78999 -1.60186 -7.15565 
1 -0.177537 0.100799 -10.6249 
1 -0.120728 -3.46987 -7.09224 
1 -0.037377 -1.74696 -8.95403 
1 -0.0268053 -3.37637 -10.7877 
1 3.6387 -3.49554 -10.8189 
1 1.82771 -1.66256 -10.5761 
1 1.78079 -3.49536 -9.15757 
2 3.73744 -1.77697 -8.86313 
1 3.65457 -3.52457 -7.04856 
1 1.70147 -1.87977 -7.17817 
1 3.6109 -0.0604617 -7.1603 
1 7.01709 -3.52572 -10.7155 
1 5.33089 -1.69875 -10.6861 
1 7.11323 -1.82244 -9.03514 
1 5.42129 -3.60644 -8.91171 
1 7.08658 -3.52527 -7.01338 
1 5.42993 -1.8508 -7.05404 
2 5.49035 0.193947 -8.94946 
1 8.85753 -1.88162 -10.7016 
1 10.8668 -3.5145 -7.18326 
1 8.84449 -3.47621 -8.81892 
2 8.8576 -1.85144 -7.14942 
2 10.6146 -1.76216 -8.94418 
1 12.4768 -1.63304 -7.14907 
1 -5.3612 -12.5098 -3.42595 
1 -1.77244 -14.053 -5.34109 
1 -3.74 -12.5547 -5.29658 
2 -0.0399994 -14.0059 -3.44814 
1 0.047066 -12.4355 -5.40968 
2 2.0434 -12.4453 -3.57173 
1 5.09529 -12.5688 -3.58386 
1 -10.9883 -8.72108 -5.14857 
1 -9.17204 -10.4116 -5.35986 
2 -9.02268 -8.96594 -3.35434 
1 -7.23458 -10.8099 -3.59992 
1 -5.4449 -10.7061 -5.20488 
1 -7.23529 -8.87526 -5.20671 
1 -5.45543 -8.9582 -3.5146 
1 -1.92971 -12.3787 -3.56986 
2 -1.84475 -10.8003 -5.36669 
1 -3.60349 -10.6243 -3.58133 
1 -3.76119 -8.86904 -5.35904 
2 -1.87267 -8.83372 -3.58654 
1 3.48077 -12.6861 -5.65819 
1 0.0392596 -8.94938 -5.41351 
2 0.157158 -10.704 -3.72494 
1 1.9488 -10.6893 -5.46774 
1 3.71088 -10.6648 -3.58226 
1 3.71393 -9.07428 -5.44887 
1 1.92147 -8.89497 -3.65925 
2 6.95847 -10.8776 -3.73122 
1 5.22995 -10.8865 -5.49448 
1 7.14421 -8.88458 -5.46785 
2 5.38566 -8.9153 -3.50017 
1 9.03497 -10.603 -5.15217 
2 8.82619 -8.7131 -3.57581 
1 10.6239 -8.72209 -5.36847 
1 -12.6752 -5.64515 -3.87538 
1 -10.7379 -7.03058 -3.43233 
1 -10.8098 -5.36813 -5.27312 
2 -9.0545 -7.16399 -5.35182 
1 -8.92205 -5.38565 -3.48796 
1 -7.16341 -6.99792 -3.58957 
1 -7.22082 -5.27109 -5.22563 
1 -5.49261 -7.09618 -5.29804 
1 -5.44746 -5.27701 -3.5328 
1 -1.8027 -7.09071 -5.39071 
1 -3.6555 -7.13551 -3.58568 
1 -3.72707 -5.29932 -5.36707 
1 -1.89472 -5.4198 -3.59767 
2 0.0249031 -5.29452 -5.34702 
1 0.051533 -7.14939 -3.64859 
2 1.91248 -7.20621 -5.34336 
1 3.6631 -7.13158 -3.62711 
1 3.65764 -5.38993 -5.44532 
1 1.85666 -5.32182 -3.66843 
1 7.09193 -7.09693 -3.58911 
1 5.42287 -7.13087 -5.30524 
1 7.05724 -5.32382 -5.41833 
1 5.36971 -5.40854 -3.49271 
1 10.7457 -7.22688 -3.57503 
1 10.7717 -5.31065 -5.28537 
2 8.83912 -7.07106 -5.51036 
2 8.99318 -5.37766 -3.584 
1 12.5578 -5.25401 -3.44172 
1 -13.9684 -3.64797 -3.62945 
1 -12.5841 -3.55405 -5.5064 
2 -12.4202 -1.66021 -3.57347 
1 -10.8631 -1.68789 -5.39945 
2 -10.8808 -3.62228 -3.55447 
1 -9.13218 -3.55647 -5.48834 
2 -9.06056 -1.85468 -3.39097 
2 -7.13603 -1.80432 -5.31156 
1 -7.27757 -3.58872 -3.43292 
1 -5.42893 -3.4726 -5.27745 
1 -5.35662 -1.83854 -3.56636 
1 -0.152937 0.0846982 -3.73167 
1 -3.64232 -1.85151 -5.35379 
1 -1.88778 -3.42326 -5.30505 
1 -3.57448 -3.63071 -3.57209 
1 -1.85764 -1.80699 -3.68771 
1 -0.0352424 -3.50313 -3.69283 
1 0.0119149 -1.73992 -5.44046 
1 -1.7956 0.0220467 -5.36461 
1 1.79739 -3.52338 -5.34007 
1 3.54723 -1.79963 -5.31442 
1 3.63255 -3.57072 -3.59722 
2 1.68589 -1.68422 -3.58884 
1 3.65356 0.00697082 -3.56661 
1 7.09313 -1.74286 -5.28499 
1 7.24168 -3.55404 -3.70843 
1 5.2423 -3.63255 -5.34026 
1 5.4026 -1.71588 -3.55529 
1 5.29253 -0.00836003 -5.33813 
1 10.5834 -1.67606 -5.31605 
1 10.613 -3.5816 -3.63833 
1 8.96399 -3.58982 -5.28568 
1 8.9446 -1.74041 -3.54186 
1 12.169 -1.62648 -3.46843 
2 12.5443 -3.33465 -5.1406 
2 14.1069 -3.11026 -3.24552 
2 14.2017 -0.151792 -3.43543 
1 -1.94686 -14.1416 -1.86394 
1 -3.49806 -14.0962 0.0757886 
1 -1.61791 -14.2156 1.66416 
1 -3.62328 -12.3599 -1.75708 
1 2.02559 -14.2179 -1.68088 
1 -0.181609 -14.4772 -0.217595 
1 3.67453 -14.1663 0.241165 
2 1.52863 -14.1581 1.66215 
2 1.81972 -12.4004 -0.12079 
1 5.2385 -14.0547 -1.65166 
1 -10.8743 -10.3344 -0.0673122 
1 -11.1195 -8.80548 -1.77557 
1 -9.04793 -10.6544 -1.54761 
1 -8.98453 -8.72992 -0.0479623 
2 -10.7227 -8.68093 1.8854 
2 -8.91432 -10.6544 1.52743 
1 -5.27132 -12.3856 0.123753 
2 -7.06767 -12.4088 1.64789 
2 -7.13591 -12.2554 -1.51548 
1 -7.08173 -10.4176 0.0492558 
2 -5.47542 -10.5851 -1.61702 
2 -5.29562 -10.6025 1.81093 
1 -7.15785 -8.82982 -1.86164 
1 -7.15487 -8.83342 1.77447 
1 -5.31871 -8.70607 -0.026387 
1 -1.78101 -12.2692 -0.00916915 
1 -3.45912 -12.4046 1.83845 
1 -3.44365 -10.6212 -0.0629465 
1 -1.82829 -10.5996 -1.74763 
1 -1.81077 -10.5315 1.83415 
1 -3.49502 -8.9069 -1.64191 
1 -3.59889 -8.89667 1.7705 
1 -1.73164 -8.874 0.00535825 
1 0.00605017 -8.93839 -1.93532 
1 0.0144376 -12.2358 1.61132 
1 -0.0359037 -8.88973 1.79867 
2 -0.0229517 -12.2569 -1.78821 
1 0.0145755 -10.5138 -0.0357185 
1 3.48497 -12.4366 1.91094 
1 3.64452 -12.4109 -1.69969 
1 3.56788 -10.6131 0.00486315 
1 1.96192 -10.3852 -1.86132 
1 1.78163 -10.5696 1.74801 
1 3.69947 -8.83985 -1.74437 
1 3.5263 -8.92075 1.81872 
1 1.8472 -8.85986 0.0120868 
1 5.30048 -12.4032 0.245536 
2 7.0463 -12.4082 -1.50167 
1 7.16566 -12.3542 1.68157 
1 7.12034 -10.5709 0.0969071 
1 5.46749 -10.7258 -1.62711 
1 5.34325 -10.5581 1.78355 
1 7.2236 -8.95956 -1.72199 
2 7.33403 -8.99341 1.83717 
1 5.48442 -8.91883 0.06603 
1 8.90382 -12.0269 0.0141203 
1 8.90579 -10.7565 -1.96576 
1 10.7722 -8.83747 -1.89326 
1 10.7925 -9.12515 1.78973 
2 9.19595 -9.3022 0.0394299 
1 9.1939 -11.0268 2.22218 
1 -12.5881 -6.74139 -1.76036 
1 -12.583 -5.24618 0.293402 
2 -10.8761 -7.06821 -0.0620089 
1 -10.8228 -5.24556 -1.75276 
1 -10.8785 -5.43685 2.00534 
1 -8.95056 -7.03187 -1.79085 
1 -8.90239 -7.09873 1.77131 
1 -9.06991 -5.36221 -0.106661 
1 -7.21055 -7.19015 -0.0618416 
1 -7.0609 -5.25677 -1.79128 
1 -5.41499 -7.07955 -1.7884 
2 -7.39229 -5.35385 1.71585 
1 -5.3807 -7.15449 1.81648 
1 -5.24926 -5.51618 -0.100058 
1 -3.51295 -7.09321 -0.0550061 
1 -1.8146 -7.12708 -1.80143 
1 -1.8098 -7.24387 1.87893 
1 -3.52962 -5.32161 -1.90753 
1 -3.64859 -5.43083 1.81432 
2 -1.82688 -5.32857 0.103551 
1 -0.0258015 -5.44241 -1.95031 
1 -0.0479076 -7.21694 0.0338044 
1 0.0828844 -5.30656 1.79443 
1 3.59814 -7.15492 0.156889 
2 1.76316 -7.19064 -1.77774 
1 1.7658 -7.17047 1.80217 
2 3.64905 -5.39948 -1.76805 
1 3.56796 -5.329 1.81985 
1 1.70234 -5.46519 0.0161121 
1 7.22555 -7.13888 -0.0633202 
1 5.41799 -7.16979 -1.77375 
1 7.08076 -5.45251 -1.80791 
1 5.32338 -7.21595 1.76571 
2 7.05881 -5.4367 1.87544 
1 5.45444 -5.42902 0.0871423 
1 10.568 -7.1446 0.0100303 
1 10.6807 -5.31156 1.68638 
1 10.6078 -5.3376 -1.80845 
1 8.87028 -7.22469 -1.74241 
1 8.96325 -7.15738 1.69657 
1 8.9332 -5.37101 -0.105483 
1 12.4441 -7.02652 -1.65662 
1 12.4508 -7.21249 1.48002 
2 12.4805 -5.26871 -0.165278 
1 -14.1576 -3.43849 0.170748 
2 -14.195 -1.85138 -1.80308 
1 -14.3412 -1.76017 1.97784 
1 -14.5503 -0.164393 0.0518825 
1 -12.657 -3.66055 -1.53417 
1 -12.5472 -1.76316 0.111225 
1 -12.375 -3.52389 1.94825 
1 -10.8227 -3.50279 0.0358348 
1 -10.9085 -1.94373 -1.6593 
1 -10.8862 -1.60444 2.00551 
1 -9.07889 -3.62685 -1.62527 
2 -9.22743 -3.48773 1.77289 
1 -9.02006 -1.70773 0.0601518 
1 -12.5419 -0.131821 -1.60468 
2 -12.4664 0.0631409 1.83143 
1 -7.40447 -3.58061 0.0714911 
1 -7.21902 -1.8709 -1.68912 
1 -7.23251 -1.76974 1.8223 
1 -5.32789 -3.59432 -1.82806 
2 -5.37349 -3.52464 1.73334 
2 -5.4276 -1.75226 -0.161691 
1 -3.68943 -3.65273 -9.80723e-05 
1 -3.51054 -1.78783 -1.93572 
2 -1.69335 -3.53648 -1.7801 
2 -3.60677 -1.73479 1.84367 
1 -1.90505 -3.53848 1.69563 
1 -1.78525 -1.81585 -0.102805 
1 -0.0025068 -1.84405 1.70818 
1 -1.80908 -0.0604299 -1.81185 
1 -0.0494658 -1.61592 -1.75754 
1 0.0391591 -3.57882 0.136075 
1 -0.0580552 -0.053915 -0.0243427 
2 3.57387 -3.62522 0.063278 
2 1.7306 -3.60689 -1.79243 
1 3.60894 -1.77355 -1.84684 
1 1.83607 -3.5572 1.82778 
1 3.54771 -1.8735 1.77068 
1 1.81138 -1.79346 -0.0174232 
1 1.74376 0.111612 -1.8051 
2 3.46747 0.0365049 -0.0721584 
1 7.07728 -3.66562 -0.0214725 
1 7.24109 -1.76368 -1.7948 
1 7.01472 -1.82012 1.80335 
1 5.49188 -3.60884 -1.88652 
1 5.36149 -3.4771 1.80072 
2 5.3277 -1.76193 -0.151627 
1 10.7148 -3.55646 -0.0892294 
1 10.647 -1.79954 1.65123 
1 10.5754 -1.89518 -1.76733 
1 8.75482 -3.61334 -1.80054 
1 8.97154 -3.60614 1.75074 
2 8.87466 -1.88121 0.0747513 
1 12.2662 -3.46233 -1.89991 
1 12.3719 -1.80573 -0.0423156 
2 12.4868 -3.5475 1.74902 
1 10.7217 0.0390233 0.0787504 
2 12.352 -0.00768023 -1.65762 
2 14.0702 -3.56861 -0.248538 
1 14.4647 -1.5522 -1.43682 
1 14.2351 -1.76776 1.54468 
2 -5.26422 -12.3756 3.64751 
2 -3.16358 -14.0699 3.47765 
1 -0.114317 -14.1955 3.38891 
1 3.34454 -14.1394 3.48935 
1 -10.4349 -10.544 3.48049 
1 -10.6378 -9.04747 5.46455 
2 -8.82782 -8.74373 3.6804 
2 -8.60844 -10.7275 5.36889 
1 -7.1676 -10.7475 3.517 
1 -5.25028 -10.8913 5.57196 
1 -7.0927 -8.91869 5.51521 
2 -5.4656 -8.95962 3.64389 
2 -3.2811 -12.4958 5.34063 
1 -1.7099 -12.2537 3.35116 
1 -1.71084 -10.5914 5.31946 
1 -3.42934 -10.7307 3.59495 
2 -3.57805 -9.00621 5.4347 
1 -1.81289 -8.86068 3.60649 
1 0.010206 -10.5645 3.61063 
1 3.38516 -12.4176 5.32531 
2 -0.0675912 -12.5201 5.22647 
1 0.106376 -8.89975 5.33765 
1 1.64821 -12.4773 3.56807 
1 1.70459 -10.6397 5.38598 
2 3.61289 -10.7172 3.65232 
1 3.41902 -8.83914 5.35743 
1 1.76152 -8.8719 3.52669 
1 5.47836 -12.6899 3.45142 
1 7.00267 -10.8379 3.59974 
1 5.44881 -10.7955 5.54647 
2 7.28383 -8.93007 5.41074 
2 5.35769 -8.85401 3.63751 
1 9.20147 -10.6107 5.2979 
2 9.08583 -8.81241 3.55702 
2 10.7082 -8.50068 5.4055 
1 -12.6008 -5.31379 3.76861 
1 -10.9738 -7.11794 3.8381 
1 -10.7859 -5.47991 5.50508 
1 -8.84778 -7.14535 5.54872 
1 -9.0429 -5.53713 3.74242 
1 -7.18108 -7.15734 3.54401 
1 -7.15158 -5.38404 5.46149 
1 -5.40403 -7.07395 5.38182 
2 -5.35443 -5.3514 3.61928 
1 -1.71864 -7.1423 5.41673 
1 -3.6435 -7.14504 3.61729 
1 -3.57832 -5.41579 5.32555 
2 -1.69884 -5.38024 3.5079 
2 0.0146493 -5.51391 5.34519 
1 -0.00293419 -7.18359 3.46045 
1 1.779 -7.16583 5.36422 
1 3.56568 -7.21997 3.46312 
1 3.56083 -5.45242 5.40672 
1 1.83374 -5.3899 3.53746 
1 7.12095 -7.1195 3.64998 
1 5.31461 -7.16034 5.34937 
2 7.13874 -5.43477 5.55666 
2 5.24159 -5.29829 3.70289 
1 10.7143 -7.07148 3.28606 
1 10.8751 -5.54431 5.05221 
1 8.89182 -7.04122 5.4613 
1 8.88354 -5.43575 3.42862 
2 12.5748 -5.46318 3.31945 
1 -14.1425 -3.34838 3.64983 
1 -14.2443 0.262295 3.56095 
1 -12.5395 -3.53021 5.53144 
1 -12.4765 -1.55904 3.78094 
1 -10.7235 -1.75084 5.47275 
1 -10.7191 -3.63748 3.78864 
1 -8.94521 -3.61946 5.48428 
2 -9.04091 -1.74514 3.66759 
1 -12.6948 0.0533691 5.52912 
1 -10.7423 0.165605 3.77469 
1 -7.28946 -1.69791 5.57434 
2 -7.23492 -3.60932 3.56517 
1 -5.40697 -3.4642 5.36742 
1 -5.44173 -1.59855 3.59402 
2 -3.61474 -1.68602 5.40793 
2 -1.85791 -3.7622 5.53518 
1 -3.63571 -3.59259 3.6238 
1 -1.9068 -1.76151 3.63089 
1 0.00585826 -3.54183 3.65428 
1 -0.122718 -1.7955 5.2344 
1 1.7837 -3.62344 5.35263 
1 3.55441 -1.82601 5.28137 
1 3.46462 -3.55041 3.59612 
1 1.77361 -1.87349 3.50224 
1 1.70272 0.00610167 5.26388 
1 7.29279 -1.92998 5.29863 
1 7.16701 -3.47663 3.4197 
1 5.33313 -3.59558 5.33578 
1 5.30052 -1.82344 3.64638 
1 5.29585 -0.0322501 5.43008 
2 7.00927 -0.00408083 3.66871 
2 10.8256 -1.93845 5.32258 
1 10.6777 -3.57343 3.44607 
2 9.09331 -3.78919 5.36773 
1 8.92488 -1.71467 3.51098 
2 12.4557 -1.70307 3.38581 
1 12.5952 -3.73294 5.36605 
1 14.3171 -3.51368 3.52783 
1 14.1353 -1.79694 5.16754 
1 -8.86712 -9.13783 7.22152 
1 -5.38459 -8.80776 10.6007 
1 -5.0926 -10.8563 8.88806 
1 -6.91575 -10.8316 7.28038 
2 -7.00593 -9.03085 8.75881 
1 -5.17662 -8.88878 7.11557 
1 -1.65676 -12.368 7.20083 
2 -1.82624 -8.69926 10.8033 
1 -1.7121 -10.7768 8.96901 
1 -3.4142 -10.7807 7.16021 
1 -3.52137 -8.93851 8.94605 
1 -1.71585 -8.90571 7.24634 
1 -0.0485125 -10.5422 7.14974 
1 0.00338506 -8.92009 9.10386 
1 1.76071 -12.1956 7.21975 
1 1.7332 -10.6524 9.06517 
1 3.54472 -10.627 7.08994 
1 3.58751 -8.98794 8.89953 
1 1.78674 -8.95504 7.21871 
1 1.78177 -8.98002 10.7194 
1 7.27212 -10.6452 7.04219 
1 5.38052 -8.91129 10.4341 
1 5.52983 -10.5519 8.77256 
1 7.2939 -8.91059 8.83746 
1 5.4095 -8.89049 7.06054 
1 9.1082 -8.94408 7.26795 
2 -10.4626 -7.14231 7.22431 
1 -10.4952 -5.35264 8.98231 
1 -8.83411 -7.22831 8.85369 
1 -8.82828 -5.42072 7.19585 
1 -8.84377 -5.29529 10.6522 
1 -7.2116 -7.1804 10.6193 
1 -7.06247 -5.36564 8.89618 
1 -5.42863 -7.11635 8.78784 
1 -7.14668 -7.31584 7.18107 
1 -5.32777 -5.39055 7.01524 
1 -5.47678 -5.39848 10.7955 
2 -3.69724 -7.0779 10.8255 
1 -1.87547 -5.43891 10.7457 
1 -1.64812 -7.28825 8.95242 
2 -3.57877 -5.44692 8.93689 
1 -3.49639 -7.10837 7.23816 
1 -1.69955 -5.50695 7.27759 
2 0.102916 -5.46988 9.11985 
1 -0.034519 -7.20576 7.16514 
1 -0.00154858 -7.17078 10.8196 
1 3.66732 -7.02809 10.8027 
1 1.94827 -5.36996 10.7817 
1 1.8264 -7.27214 9.08099 
1 3.59056 -5.37671 9.02193 
1 3.48947 -7.23038 7.15223 
2 1.82465 -5.40685 7.21076 
1 7.00229 -7.06924 10.4738 
1 5.43874 -5.39263 10.6864 
1 5.27116 -7.2732 8.74607 
1 7.0966 -5.33317 8.89054 
1 7.2446 -7.22845 7.17777 
2 5.28003 -5.38578 7.21612 
1 8.88509 -5.22704 10.6629 
1 10.7172 -5.11757 9.15195 
1 10.7739 -6.7613 7.21116 
1 9.02171 -7.06233 9.01666 
1 8.86687 -5.38698 7.31797 
2 -10.7479 -3.80218 7.18938 
2 -12.2251 -1.69504 7.42791 
1 -8.92973 -1.80659 10.4449 
1 -10.873 -3.01394 9.6299 
1 -8.62963 -3.6196 8.80939 
2 -9.11653 -1.80808 7.31998 
1 -11.0482 -0.640154 9.32678 
1 -7.22577 -3.45087 10.782 
1 -5.36787 -1.65704 10.7303 
1 -7.09124 -1.66797 8.90095 
2 -5.40955 -3.56844 8.91423 
1 -7.13221 -3.50611 7.01777 
1 -5.44324 -1.64351 7.2368 
1 -7.23711 0.162793 10.6837 
1 -3.61974 -3.52854 10.7263 
1 -1.86698 -1.83519 10.6674 
1 -3.60771 -1.86242 8.89679 
2 -1.86417 -3.55664 8.96605 
1 -3.68413 -3.65009 7.15754 
1 -1.84095 -1.75392 7.0919 
1 -0.0141643 -1.81041 8.97617 
1 0.02482 -3.55753 10.6341 
2 0.0378573 -3.51474 7.08172 
1 -3.70561 0.00267105 10.6874 
1 -1.94512 -0.0178645 9.0786 
1 1.81393 -1.67273 7.09371 
2 3.48993 -3.45605 7.13726 
1 1.91669 -1.88245 10.581 
1 1.81333 -3.56296 9.05384 
1 3.62123 -1.69103 8.89574 
1 3.57368 -3.47691 10.7033 
1 3.50402 -0.0702197 7.02746 
1 1.62771 -0.0341365 8.90009 
2 -0.0610061 -0.136029 7.13891 
1 -0.0392995 -0.0968834 10.6602 
1 3.6512 -0.0402403 10.863 
1 7.19061 -1.84445 8.89699 
1 5.36951 -3.61599 8.9143 
1 7.18369 -3.60821 10.7119 
1 5.34452 -1.7413 10.6221 
1 7.14026 -3.50587 7.14342 
1 5.4702 -1.78068 7.13554 
1 7.29063 0.0274372 7.23462 
1 7.23976 -0.100654 10.7054 
1 5.39134 -0.188692 8.88967 
1 12.5308 0.0719143 8.67772 
1 8.84168 -3.50116 8.8526 
1 8.96569 -1.88741 7.13378 
2 10.7433 -2.01899 8.88861 
1 10.8995 -3.96789 7.02856 
1 8.90985 -1.99853 10.8035 
2 9.08353 -0.0596853 8.92205 
2 12.7207 -1.95124 7.24778 
1 0.0733374 -8.55036 12.5979 
1 -0.0933264 -6.46919 14.2455 
1 0.0578434 -5.27296 12.1492 
1 -3.57746 -5.16024 12.4997 
1 -1.74858 -6.7915 12.6662 
2 1.86645 -7.01145 12.5206 
1 3.72203 -5.20112 12.5339 
1 1.91578 -5.05348 14.2348 
1 -7.19308 -1.54756 12.2672 
1 -5.39603 -3.51311 12.2311 
1 -5.389 0.0432401 12.5235 
1 -1.78174 -0.193604 12.459 
1 -3.61999 0.0395517 14.2425 
2 -0.220653 -3.84487 14.0126 
1 -3.63346 -1.75701 12.4953 
1 -1.79609 -3.61727 12.3273 
1 -1.83138 -1.92406 14.0713 
1 3.4709 -1.83787 12.5829 
1 1.80698 -3.51875 12.3402 
1 1.6396 -2.19318 14.1945 
1 -0.040144 -1.9009 12.3554 
1 3.29747 -0.0218146 14.0664 
1 5.31967 -0.0258575 12.6751 
2 5.37042 -3.44496 12.3088 
1 7.2006 -1.69764 12.4636 
1 -7.25772 1.46126 -12.3765 
1 -5.76146 3.54993 -12.4399 
1 -5.33392 0.0489718 -12.4534 
2 -2.01236 1.92443 -14.3065 
2 -3.75069 1.99987 -12.6763 
1 -1.86337 3.74827 -12.4977 
2 -0.107102 1.83106 -12.4229 
2 -1.9243 0.0879153 -12.3744 
1 -3.67032 -0.11056 -14.3291 
2 -0.104092 -0.0311122 -14.2627 
1 -0.0944591 3.58473 -14.3874 
1 3.42153 3.32101 -14.4056 
1 3.45793 1.91553 -12.4146 
2 1.76772 3.6199 -12.5064 
1 1.48097 1.80655 -14.3667 
2 1.75325 0.0388755 -12.413 
1 5.25646 1.87014 -14.2986 
1 7.10912 1.82086 -12.4983 
1 5.3405 3.66979 -12.5264 
1 -1.72748 7.16821 -12.4987 
1 -3.59197 5.45223 -12.4695 
1 -0.151824 5.43462 -12.5556 
1 1.63557 7.00343 -12.3005 
1 3.59088 5.3694 -12.549 
1 -12.6457 1.9941 -6.99438 
1 -10.8396 1.98869 -8.89171 
1 -9.05379 1.80857 -10.8504 
2 -9.08957 3.65411 -8.89972 
2 -9.03686 1.87455 -7.14892 
1 -10.8969 3.78575 -7.02261 
1 -7.38926 3.67423 -10.6987 
2 -5.38383 1.8082 -10.6962 
2 -7.20835 1.79198 -8.96273 
1 -5.52481 3.76665 -8.95932 
1 -7.12209 3.61825 -7.10303 
2 -5.4249 1.86495 -7.16677 
1 -3.73249 3.73717 -10.6535 
1 -1.97571 1.89824 -10.7959 
1 -3.62834 1.81389 -8.87494 
2 -1.84377 3.60884 -8.92359 
2 -3.67219 3.73127 -7.17538 
1 -1.70044 1.80959 -6.98169 
1 -0.0419252 1.92001 -8.94048 
1 -0.0193426 3.63782 -7.01544 
1 -0.0236172 3.65369 -10.8751 
1 -3.66334 0.0426773 -7.12526 
1 -3.64288 0.0873217 -10.6813 
1 -1.81487 0.221404 -8.87025 
1 -0.0499378 -9.8736e-05 -7.25339 
1 3.70496 3.66143 -10.6391 
1 1.78946 1.93658 -10.647 
1 3.59961 1.82375 -8.88486 
2 1.89537 3.66951 -8.90534 
1 3.75744 3.59168 -7.14288 
2 1.78273 1.83818 -7.09915 
1 3.64962 0.166024 -10.6833 
2 1.67177 0.0449504 -8.93875 
2 7.05539 3.61107 -10.6359 
1 5.28518 1.90476 -10.757 
1 7.23895 1.90283 -8.91821 
1 5.21973 3.67123 -8.91799 
1 7.05317 3.61601 -7.13504 
1 5.36387 1.82713 -7.12524 
2 7.2151 0.0512008 -7.14512 
2 7.30059 0.139117 -10.7937 
1 8.96169 0.139395 -8.99761 
1 9.04918 2.22511 -10.7717 
2 10.645 2.07185 -9.02433 
1 8.94637 3.63287 -8.67402 
1 8.96622 1.754 -7.06527 
1 10.6927 3.71173 -7.01534 
1 10.3226 0.0906951 -10.7729 
2 10.7252 0.0230454 -7.06359 
2 12.3754 1.82906 -7.16646 
1 -10.8592 5.34382 -8.93687 
1 -10.8799 6.81772 -7.11873 
1 -9.2805 7.31233 -8.8592 
1 -8.9466 5.33923 -7.1598 
1 -9.04547 5.4721 -10.5691 
2 -5.69332 5.47613 -10.8745 
1 -7.44279 7.28059 -10.5034 
1 -7.16461 5.46532 -8.79866 
1 -5.53322 7.35628 -8.89538 
2 -7.41262 7.2489 -7.1946 
1 -5.56469 5.44541 -7.10719 
2 -3.78737 7.21228 -10.7867 
1 -1.80009 5.46556 -10.7204 
1 -1.77273 7.27606 -9.01397 
2 -3.6893 5.60317 -8.93919 
1 -3.72207 7.08843 -7.10785 
1 -1.84566 5.48003 -7.06868 
2 -0.0161761 5.40344 -8.9025 
1 -0.147097 7.29508 -7.10511 
1 -0.149466 7.19568 -10.7454 
1 3.50603 7.27253 -10.8189 
1 1.82549 5.31487 -10.7464 
2 1.74573 7.28557 -8.87971 
1 3.49448 5.52611 -9.01563 
1 3.51911 7.23569 -7.19879 
1 1.86901 5.46734 -7.14271 
1 7.17735 6.91543 -10.5675 
1 5.32896 5.42772 -10.7211 
1 7.12089 5.31697 -8.80066 
1 5.33086 7.0887 -8.71193 
1 7.08967 7.08965 -7.04129 
1 5.25855 5.42429 -7.07604 
1 8.93293 5.10905 -10.5031 
1 10.7007 5.37437 -8.82942 
1 8.85865 7.05661 -8.82208 
1 8.89207 5.33596 -7.03613 
2 10.5977 7.01057 -6.83888 
1 -9.30691 9.04269 -7.00484 
1 -5.49136 8.97247 -10.603 
1 -5.26776 10.5634 -8.87383 
1 -7.27435 9.10318 -8.77341 
1 -5.44367 8.91082 -7.02229 
1 -7.06656 10.6316 -6.91717 
2 -1.83842 9.08534 -10.7713 
2 -2.07057 10.6542 -8.75975 
1 -3.73214 10.8814 -7.00208 
1 -3.65323 8.87103 -8.82817 
1 -1.94537 8.87694 -7.1259 
1 -0.167113 12.0172 -8.98342 
1 -1.74428 12.3387 -7.08887 
1 -0.0860338 8.97584 -8.97586 
1 -0.235655 10.5017 -7.10202 
1 1.65611 9.00774 -10.6454 
1 1.7997 10.6943 -9.06571 
1 3.60217 10.6641 -7.21583 
1 3.60464 9.02477 -9.08963 
1 1.66298 9.01117 -7.08332 
2 1.52288 12.2906 -7.11883 
1 5.47097 8.6751 -10.4789 
1 5.52963 10.6512 -8.87416 
1 7.17976 10.6116 -7.15042 
1 7.08945 8.83581 -8.82521 
1 5.35616 8.86998 -7.10912 
1 8.9357 8.89892 -7.09369 
2 -14.1831 3.59601 -3.05614 
1 -14.2442 0.0182827 -3.5484 
1 -12.761 0.014025 -5.52019 
2 -12.7024 3.53974 -5.03574 
1 -12.5767 1.74038 -3.28931 
2 -10.919 1.87394 -5.36053 
1 -10.8049 3.55143 -3.37671 
1 -9.09232 3.70394 -5.25994 
2 -9.09281 1.84743 -3.53431 
2 -9.03098 0.0228568 -5.34127 
1 -10.9177 0.12848 -3.50272 
1 -7.22503 1.83352 -5.38216 
2 -7.18088 3.60014 -3.51844 
1 -5.47476 3.60552 -5.25901 
1 -5.42766 1.81584 -3.63387 
1 -5.45677 0.0713197 -5.40601 
2 -7.23125 -0.0903521 -3.42859 
1 -3.66157 2.0043 -5.40668 
1 -1.85659 3.57761 -5.28528 
1 -3.66442 3.69405 -3.50966 
1 -1.77586 1.83194 -3.6131 
1 -0.0764742 3.69897 -3.67149 
1 -0.039861 1.7853 -5.34662 
1 -3.56768 0.0578296 -3.64792 
1 3.60584 1.66759 -5.39365 
2 1.81939 3.63885 -5.25451 
1 3.5586 3.45626 -3.50776 
2 1.74148 1.63078 -3.5887 
1 1.83851 -0.148705 -5.43045 
1 6.98944 1.77697 -5.28548 
1 7.17096 3.55676 -3.46463 
1 5.21261 3.69814 -5.28996 
1 5.41576 1.75685 -3.49858 
1 7.17538 0.0491938 -3.5666 
1 10.6164 0.117896 -3.65767 
1 10.7659 1.85514 -5.24088 
1 10.7196 3.64587 -3.57574 
2 8.81851 3.55587 -5.34807 
1 8.98932 1.78375 -3.64328 
1 12.5218 1.71446 -3.58955 
1 8.89466 0.107285 -5.37783 
2 12.6358 0.0314574 -5.3636 
1 12.5655 3.59278 -5.22637 
1 14.1462 3.61768 -3.4626 
1 -12.5942 5.44515 -3.37766 
1 -10.9557 7.24739 -3.36246 
1 -10.9614 5.3365 -5.16888 
2 -9.04796 7.10272 -5.20742 
1 -9.00639 5.3662 -3.46747 
1 -7.24972 7.19359 -3.50295 
1 -7.24101 5.37881 -5.3055 
1 -5.40924 7.07966 -5.36831 
1 -5.38509 5.48605 -3.60181 
1 -1.90625 7.19484 -5.31586 
1 -3.69054 7.2145 -3.45811 
1 -3.70893 5.40054 -5.39589 
1 -1.92258 5.45122 -3.55859 
2 -0.070605 7.20263 -3.59328 
1 -0.157062 5.40807 -5.41217 
1 1.80187 7.1951 -5.34265 
2 3.43379 7.03879 -3.43372 
1 3.54425 5.41402 -5.37173 
1 1.5729 5.34314 -3.64842 
1 7.0514 7.08229 -3.46345 
1 7.02946 5.29366 -5.21668 
2 5.40681 7.13119 -5.3167 
1 5.40535 5.13979 -3.30279 
1 10.6385 7.18512 -3.48459 
1 10.7547 5.41039 -5.24502 
1 8.6617 7.04458 -5.23608 
1 8.85529 5.35828 -3.53434 
2 12.3665 5.48852 -3.44252 
1 -10.7471 8.82505 -5.26502 
1 -8.78678 10.676 -5.04304 
1 -8.98157 8.8321 -3.37915 
1 -10.6095 10.5976 -3.37452 
1 -7.05688 10.6793 -3.39393 
1 -5.49449 10.6217 -5.13789 
1 -7.09134 8.87004 -5.14706 
1 -5.39563 8.88467 -3.44698 
1 -1.8675 10.7275 -5.23954 
1 -3.68383 10.7271 -3.4834 
2 -3.74312 8.92153 -5.32078 
1 -1.93501 8.94138 -3.52275 
1 -0.189298 12.5524 -5.30292 
1 -0.179445 8.93818 -5.26465 
1 -0.137911 10.7382 -3.47603 
1 -1.76551 12.5331 -3.50337 
1 -3.50255 12.4383 -5.19099 
2 1.60748 10.6877 -5.26296 
1 3.54703 10.7123 -3.54097 
1 3.51159 9.0077 -5.31803 
1 1.79738 8.96617 -3.55909 
1 1.59481 12.5018 -3.53117 
1 7.18166 10.8315 -3.47592 
2 5.38348 10.8104 -5.46931 
1 7.18078 8.9726 -5.28919 
2 5.37324 8.98772 -3.49943 
1 5.43165 12.5983 -3.76558 
1 10.5831 8.88648 -5.16819 
1 8.88916 10.7095 -5.21715 
1 8.98038 8.93588 -3.50065 
1 -5.40935 12.4779 -3.46085 
1 -3.5147 14.2777 -3.54482 
1 -0.0860337 14.3397 -3.72013 
1 3.56899 12.4052 -5.44181 
2 1.7019 14.025 -5.37821 
1 3.67653 14.1618 -3.88201 
1 -14.3074 3.58232 -0.060207 
1 -14.3291 1.55584 -1.64457 
1 -14.4776 1.63275 1.70596 
2 -12.6729 3.55428 1.84467 
1 -12.6828 1.71772 0.0315809 
1 -12.4643 3.62625 -1.59578 
2 -10.8132 3.56142 0.0697663 
1 -10.8337 1.70251 -1.62678 
1 -10.8305 1.8434 1.86529 
1 -9.03737 3.52259 -1.70865 
1 -8.94851 3.46196 1.84907 
1 -9.09163 1.77711 -0.0190573 
1 -10.7643 -0.0338123 -0.0695654 
1 -9.04469 0.0242978 -1.69608 
2 -8.9435 0.138537 1.8349 
1 -7.13 3.54286 0.0254862 
1 -7.20325 1.7375 -1.61102 
1 -7.20513 1.8077 1.79161 
1 -5.38269 3.47198 -1.73062 
1 -5.35238 3.50649 1.71764 
1 -5.44437 1.78683 -0.157779 
2 -5.35254 0.164434 1.65154 
1 -5.29622 0.117965 -1.83221 
1 -7.20413 0.0224931 0.00714436 
2 -3.58392 3.50327 0.0219353 
1 -3.57116 1.76154 -1.91057 
2 -1.69416 3.60108 -1.88049 
1 -3.56329 1.81088 1.73222 
1 -1.78913 3.53443 1.69238 
1 -1.81875 1.69086 -0.0142461 
1 -0.188302 1.70499 -1.79856 
1 -3.57257 0.0859706 -0.129916 
1 -0.142922 1.85185 1.70838 
1 -0.0922027 3.55962 -0.119547 
1 -1.78393 -0.161332 1.77449 
2 3.48666 3.46229 0.046431 
1 3.55396 1.76592 -1.78228 
2 1.7268 3.59378 -1.8813 
1 3.64197 1.74568 1.80462 
1 1.67092 3.57018 1.6949 
2 1.60623 1.81123 -0.000963994 
2 1.71932 -0.0687924 1.79782 
1 7.15705 3.57388 -0.0327528 
1 7.38523 1.8519 -1.76115 
1 7.03025 1.90703 1.98892 
1 5.43106 3.37985 -1.67181 
1 5.30312 3.64458 1.75528 
2 5.49993 1.60108 0.0553831 
1 7.24634 -0.00464065 0.0160323 
1 5.52784 -0.00990722 -1.94432 
1 5.27279 -0.145385 1.80312 
1 10.6841 3.59797 0.114394 
1 10.7199 1.90098 1.85147 
2 10.6995 2.01366 -1.82198 
1 8.90792 3.68904 -1.75961 
1 8.83141 3.59668 1.81361 
1 8.95308 1.96488 0.0414565 
2 8.77373 0.179936 1.77109 
1 12.4723 1.96018 0.142243 
1 12.5019 3.68551 -1.76131 
1 9.03492 0.0800752 -1.78941 
1 12.5114 3.64053 1.67626 
1 12.402 0.0774636 1.7711 
1 14.2969 0.221234 0.108575 
1 14.2174 3.79982 -0.154864 
2 14.2331 1.72403 -1.77569 
1 14.4452 2.05625 1.58132 
1 -12.6026 5.38185 0.045841 
1 -12.503 7.24203 1.65106 
1 -12.4891 7.22923 -1.57457 
1 -10.6888 7.01952 0.0327485 
1 -10.7473 5.36118 -1.79093 
1 -10.826 5.34669 1.92043 
1 -8.85158 7.11667 -1.66193 
2 -8.93557 7.01665 1.67842 
1 -9.01292 5.23533 0.0711112 
1 -7.13867 7.06399 0.0860595 
1 -7.26009 5.36889 -1.74292 
2 -5.39345 7.16799 -1.71658 
1 -7.16876 5.13294 1.68292 
1 -5.35793 7.0947 1.83233 
1 -5.41953 5.32907 0.0788953 
1 -3.62829 6.98579 0.0351655 
1 -1.84638 7.17138 -1.70076 
1 -1.80128 7.18635 1.84564 
1 -3.70681 5.33555 -1.77536 
1 -3.65735 5.29819 1.90984 
2 -1.77606 5.43447 -0.00839786 
1 -0.090818 5.43948 -1.81502 
1 -0.0439066 5.3375 1.70394 
1 -0.0170723 7.28041 -0.0782152 
1 3.54213 7.25375 -0.0664832 
1 1.68576 7.11747 -1.71119 
2 1.75791 7.20758 1.69358 
1 3.50052 5.30333 -1.75035 
2 3.66537 5.38983 1.77554 
1 1.69034 5.39151 -0.0622075 
1 7.29314 7.04988 -0.000800306 
1 7.15801 5.3167 -1.71058 
2 5.4255 7.08873 -1.70229 
1 7.12067 5.24805 1.75348 
1 5.43174 7.15792 1.7664 
1 5.26476 5.4018 -0.12928 
1 10.703 7.05172 -0.197237 
1 10.6961 5.335 1.78196 
1 10.7614 5.40663 -1.72045 
1 8.96339 7.13797 -1.88732 
2 9.13233 7.30735 1.68094 
1 8.98985 5.34246 -0.0575695 
2 12.0819 7.17329 1.72017 
1 12.5492 7.33151 -1.75039 
1 12.5028 5.47744 -0.0542466 
2 -8.75646 10.6893 -1.53967 
1 -8.79846 10.6792 1.73049 
2 -10.7203 8.91536 -1.44416 
1 -10.6329 8.9002 1.53383 
1 -8.8564 8.89972 0.0105002 
1 -6.94298 10.6406 0.0581619 
1 -5.25191 10.5305 1.86381 
1 -5.46921 10.6128 -1.6692 
1 -7.21503 8.8997 -1.59676 
1 -7.19122 8.90334 1.80612 
1 -5.38094 8.85265 0.0660745 
1 -7.06095 12.4872 1.78193 
1 -3.58232 10.7259 0.0102276 
2 -1.81521 10.9705 1.82177 
1 -1.87542 10.8028 -1.8419 
1 -3.61733 9.02015 -1.7948 
2 -3.50355 8.83309 1.81527 
1 -1.87895 8.9893 -0.0155585 
1 -3.53457 12.5391 -1.75 
1 -1.83588 12.5096 0.0136516 
1 -0.0633365 9.03 1.69472 
2 -0.0130816 9.01442 -1.77694 
1 -0.071788 12.5251 -1.78055 
1 0.0691495 10.7786 -0.0363065 
1 0.141435 12.4571 1.90966 
1 3.58196 10.6585 0.073202 
1 1.81532 10.7156 1.80829 
1 1.75202 10.7284 -1.82228 
1 3.40514 8.9561 -1.75083 
1 3.60262 8.88322 1.83659 
1 1.80087 8.98693 0.0390937 
1 3.76838 12.5865 1.83966 
2 1.91809 12.4595 0.0361762 
2 3.70256 12.5189 -1.84426 
1 7.3198 10.7857 -0.214324 