ITEM: TIMESTEP
1300000
ITEM: NUMBER OF ATOMS
1289
ITEM: BOX BOUNDS pp pp pp
-100 100
-100 100
-100 100
ITEM: ATOMS type x y z 
1 -2.00036 -7.05838 -12.4262 
1 -3.63471 -5.26137 -12.371 
1 -0.242973 -5.27934 -12.459 
1 1.60802 -6.88179 -12.6239 
1 3.18983 -5.1155 -12.6542 
1 -7.26973 -1.93048 -12.399 
2 -5.60689 -3.58404 -12.4028 
1 7.00385 -1.66571 12.5022 
2 -1.9298 -1.87435 -14.2309 
2 -3.71687 -1.82366 -12.383 
1 -1.91724 -3.51627 -12.4384 
1 -0.2748 -1.59388 -12.4044 
1 -0.179766 -3.48901 -14.1306 
2 3.3108 -3.37398 -14.3375 
1 1.56032 -3.40296 -12.4102 
1 3.48642 -1.83237 -12.4111 
1 1.38007 -1.71846 -14.2809 
1 5.32921 -1.81981 -14.3552 
2 7.09305 -1.83835 -12.5191 
2 5.1771 -3.52149 -12.6003 
1 -1.73377 -12.5177 -7.09925 
1 1.80869 -12.559 -7.42452 
1 -8.9372 -9.05601 -6.81862 
2 -5.19409 -10.7175 -8.57872 
1 -5.32541 -9.06242 -10.3735 
1 -7.15483 -8.9763 -8.825 
1 -5.23675 -8.93701 -6.85382 
1 -7.02511 -10.7676 -6.94483 
1 -1.87846 -10.7269 -9.11051 
1 -1.97429 -8.76998 -10.6072 
1 -3.44433 -10.9067 -7.03181 
2 -3.51531 -8.90695 -8.63703 
1 -1.77643 -8.81121 -6.95813 
1 -0.102518 -8.80501 -8.88384 
2 0.0607731 -10.7041 -7.27086 
1 -0.194106 -10.3958 -10.7094 
1 1.65367 -8.81778 -10.9506 
2 1.774 -10.6457 -9.14825 
1 3.52206 -10.6117 -7.33016 
2 3.62334 -8.76665 -9.06404 
1 1.78774 -8.85974 -7.32552 
1 5.2357 -10.6901 -9.02394 
1 7.09498 -8.7799 -8.96141 
1 5.48758 -8.81721 -7.20996 
1 7.14378 -10.6959 -7.29801 
1 5.23901 -8.67627 -10.9516 
1 8.96972 -8.94027 -7.29659 
1 -10.6718 -5.38305 -8.54688 
1 -8.89852 -5.51018 -10.2362 
1 -9.05218 -7.22643 -8.68076 
2 -8.90992 -5.3945 -6.95903 
2 -10.7056 -7.20088 -6.56297 
1 -6.79146 -7.14386 -10.7393 
1 -5.39083 -5.19882 -10.5382 
1 -7.06915 -5.29401 -8.68462 
1 -5.35943 -7.03933 -8.62684 
2 -7.12212 -7.19297 -6.9778 
1 -5.35719 -5.2936 -6.90261 
2 -3.87217 -7.16371 -10.5681 
1 -1.83805 -5.36632 -10.7042 
1 -1.88464 -7.02323 -8.81548 
1 -3.61214 -5.33545 -8.8709 
1 -3.63059 -7.01143 -6.99497 
2 -1.90238 -5.26655 -7.05728 
2 0.00819152 -7.1806 -7.10374 
2 -0.0384295 -5.36753 -9.02218 
1 -0.230304 -7.31667 -10.8865 
2 3.47879 -6.88746 -10.9555 
1 1.50711 -5.22885 -10.8108 
1 1.73118 -7.17551 -9.09711 
1 3.53492 -5.36554 -8.99644 
1 3.63192 -7.10468 -7.13945 
2 1.87182 -5.28247 -7.11256 
1 7.08938 -7.01363 -10.658 
1 5.2391 -5.39002 -10.896 
1 5.29435 -6.98865 -9.00511 
1 6.96655 -5.1506 -9.10352 
1 7.0375 -6.91065 -7.17808 
1 5.26799 -5.34253 -7.21224 
1 8.86365 -5.23694 -10.8234 
1 10.6887 -5.15761 -8.8932 
1 10.7725 -7.19568 -7.10057 
2 8.77192 -6.99191 -8.72835 
1 8.80864 -5.1228 -7.17279 
1 -12.577 -1.85074 -6.85938 
1 -10.8799 -1.76674 -8.91426 
1 -8.91766 -1.91587 -10.5513 
1 -10.885 -3.64288 -6.70837 
1 -9.08995 -3.48576 -8.66696 
1 -9.08875 -1.79049 -7.02539 
1 -7.19446 -3.60701 -10.6049 
1 -5.42005 -1.77449 -10.5963 
1 -7.14786 -1.76679 -8.7084 
1 -5.36436 -3.52429 -8.84869 
1 -7.12755 -3.46152 -6.92369 
1 -5.27197 -1.67909 -7.00706 
1 -3.69984 -3.57593 -10.6352 
1 -1.86892 -1.69794 -10.5643 
1 -3.6114 -1.76048 -8.919 
2 -1.96318 -3.58485 -8.88035 
1 -3.63694 -3.44641 -7.0971 
1 -1.888 -1.69552 -7.04142 
1 -0.11601 -1.70684 -8.75547 
1 -0.132712 -3.48848 -10.6802 
1 0.0206064 -3.55549 -7.1153 
1 -0.144094 -0.00241695 -10.5705 
1 3.46453 -3.62859 -10.73 
1 1.7777 -1.74176 -10.6725 
1 1.70729 -3.44475 -8.99157 
2 3.45181 -1.81475 -8.82439 
1 3.54333 -3.58867 -7.16739 
1 1.65683 -1.85645 -7.13369 
1 7.01082 -3.68412 -10.8419 
1 5.16998 -1.82275 -10.6907 
1 7.06494 -1.79572 -9.0323 
1 5.23624 -3.5539 -9.01605 
1 7.04119 -3.62726 -7.3062 
1 5.2511 -1.8327 -7.1118 
1 8.82311 -1.81961 -10.7677 
1 10.7327 -3.45902 -7.20166 
1 8.77858 -3.5955 -9.0463 
2 8.79219 -1.83802 -7.27306 
2 10.6233 -1.94469 -9.03119 
1 12.556 -1.64914 -7.30296 
1 -1.72373 -14.1293 -5.2003 
1 -3.55752 -12.6182 -5.27412 
1 0.262228 -12.6847 -5.51642 
2 0.163371 -14.1467 -3.43124 
1 3.48384 -12.5023 -5.70346 
1 5.1025 -12.3549 -3.64665 
1 -10.7215 -9.32474 -5.24197 
1 -8.84986 -10.9363 -5.06114 
2 -8.76344 -9.08489 -3.4574 
1 -5.23075 -12.6693 -3.2945 
1 -6.94631 -10.9445 -3.4323 
1 -5.26967 -10.9114 -5.13601 
1 -6.90182 -8.96367 -5.15285 
1 -5.19162 -8.9418 -3.54489 
1 -1.83295 -12.5277 -3.24817 
2 -1.83854 -10.9688 -5.22839 
1 -3.55461 -10.8406 -3.39236 
1 -3.5097 -8.95807 -5.3788 
2 -1.83337 -9.09653 -3.46025 
1 0.04377 -8.9578 -5.32284 
2 0.169729 -10.7989 -3.5962 
2 2.06601 -12.5819 -3.75531 
1 1.85548 -10.6558 -5.48239 
1 3.46647 -10.5088 -3.61079 
1 3.63096 -8.96359 -5.51624 
1 1.84879 -8.93299 -3.6296 
2 7.04953 -10.823 -3.89013 
1 5.22037 -10.7989 -5.57648 
1 7.08292 -8.98669 -5.52935 
2 5.28568 -9.01985 -3.68161 
1 8.85313 -10.6327 -5.62689 
2 8.88312 -9.01181 -3.52022 
1 10.6465 -8.88581 -5.24266 
1 -12.6609 -5.55831 -3.38274 
1 -10.8446 -7.31712 -3.61869 
1 -10.7392 -5.41016 -5.0696 
2 -8.92917 -7.24997 -5.00748 
1 -8.94797 -5.26139 -3.43877 
1 -7.06935 -6.97829 -3.47409 
1 -7.08764 -5.19785 -5.16786 
1 -5.40642 -7.0999 -5.18474 
1 -5.41217 -5.29095 -3.47179 
1 -1.81557 -7.09939 -5.32622 
1 -3.53149 -7.14112 -3.51253 
1 -3.6798 -5.39779 -5.15131 
1 -1.77585 -5.48104 -3.61267 
2 -0.0801841 -5.31601 -5.24868 
1 -0.0622241 -7.24915 -3.62145 
2 1.83129 -7.27849 -5.34187 
1 3.54535 -7.09104 -3.81709 
1 3.57334 -5.30421 -5.30932 
1 1.8292 -5.36953 -3.60165 
1 7.07524 -7.06882 -3.71066 
1 5.45032 -7.07207 -5.37164 
1 7.10365 -5.22685 -5.28904 
1 5.27707 -5.25667 -3.66023 
1 10.7981 -7.02874 -3.59935 
1 10.7186 -5.2939 -5.448 
2 8.83785 -7.07826 -5.42387 
2 8.8921 -5.29535 -3.60525 
1 12.5676 -5.19917 -3.37192 
1 -14.3535 -3.63674 -3.31714 
1 -12.6746 -3.72189 -5.11907 
2 -12.6182 -1.79694 -3.52706 
1 -10.802 -1.61176 -5.33998 
2 -10.7431 -3.49544 -3.47536 
1 -9.01777 -3.58211 -5.25598 
2 -8.97063 -1.78201 -3.45391 
1 -10.8125 0.0304406 -3.31298 
2 5.36774 -3.51997 12.4124 
2 -7.09588 -1.75379 -5.21215 
1 -7.06382 -3.534 -3.46356 
1 -5.28355 -3.45053 -5.29723 
1 -5.22618 -1.68422 -3.45969 
1 -3.63434 -1.72766 -5.29278 
1 -1.87239 -3.578 -5.31861 
1 -3.4914 -3.49208 -3.51817 
1 -1.69037 -1.83162 -3.64873 
1 -0.0577015 -3.48884 -3.5606 
1 -0.0509506 -1.73726 -5.49923 
1 0.031397 -0.0122888 -3.60566 
1 1.77187 -3.53237 -5.33055 
1 3.47697 -1.77863 -5.48977 
1 3.56748 -3.42924 -3.70024 
2 1.79355 -1.72589 -3.54421 
1 1.69141 0.0376202 -5.46502 
1 7.07621 -1.75783 -5.4791 
1 7.02082 -3.47155 -3.65409 
1 5.26409 -3.56397 -5.50704 
1 5.28725 -1.67574 -3.68498 
1 10.5711 -1.81022 -5.41216 
1 10.5644 -3.59491 -3.5944 
1 8.88849 -3.53855 -5.46813 
1 8.8179 -1.81482 -3.74503 
1 12.2354 -1.83035 -3.59566 
2 12.3824 -0.0873966 -5.42529 
2 12.355 -3.58888 -5.33019 
2 14.0492 -3.16225 -3.30869 
2 14.1787 -0.302946 -3.7646 
1 -5.23875 -12.7295 0.245146 
2 -7.30355 -12.4648 1.34924 
1 -3.41598 -14.2057 0.23681 
1 -1.7495 -14.2903 -1.56269 
1 -1.22484 -14.3085 1.48584 
1 -3.37776 -12.3734 1.71056 
1 0.334842 -14.6492 -0.269085 
1 2.46767 -14.37 -2.07355 
1 3.59026 -14.2179 0.335653 
2 1.49901 -14.1473 1.86623 
1 5.00512 -14.2053 -1.9442 
1 -10.8114 -10.6243 0.142396 
1 -10.7278 -9.02632 -1.84105 
1 -9.0513 -10.8546 -1.69089 
2 -8.99056 -10.6723 1.77218 
1 -8.92848 -8.98846 -0.023406 
2 -10.9357 -8.69265 1.82657 
2 -7.0761 -12.4346 -1.37388 
1 -7.25011 -10.4709 -0.124546 
2 -5.21966 -10.654 -1.64917 
2 -5.31567 -10.6624 1.5159 
1 -7.04617 -8.95246 -1.86065 
1 -7.1746 -8.97629 1.72189 
1 -5.19637 -8.77976 -0.00411081 
1 -1.64708 -12.4218 0.0772457 
1 -3.60242 -12.5319 -1.58933 
2 0.169199 -12.4762 -1.65497 
1 -3.43848 -10.6967 -0.0626539 
1 -1.70972 -10.7288 -1.6632 
1 -1.64616 -10.5736 1.74509 
1 -3.51627 -8.89549 -1.79499 
1 -3.52026 -8.85529 1.70345 
1 -1.73543 -8.87397 0.0325743 
1 0.0987097 -8.75844 1.7549 
1 -0.018995 -8.89778 -1.74414 
1 0.152966 -12.1851 1.94829 
1 0.103609 -10.5468 0.0811763 
1 3.53852 -12.3413 1.89797 
2 1.7992 -12.4954 0.0861217 
1 3.55407 -12.3066 -1.7997 
1 3.46297 -10.5533 0.0695274 
1 1.83627 -10.5569 -1.74354 
1 1.85516 -10.5491 1.83582 
1 3.66233 -8.83166 -1.83398 
1 3.55073 -8.86871 1.84808 
1 1.8216 -8.87098 -0.0270253 
2 6.86967 -12.4928 -2.04064 
1 5.41344 -12.6225 -0.00413504 
1 7.05786 -12.2118 1.66799 
1 6.99618 -10.699 -0.105736 
1 5.32757 -10.7185 -1.7197 
1 5.18444 -10.6829 1.66475 
1 7.03448 -9.01059 -1.79599 
2 7.04397 -8.87671 1.62573 
1 5.34058 -8.8567 -0.0735956 
1 8.88979 -10.8811 -1.68791 
1 8.43685 -12.5916 -0.226024 
1 10.8114 -8.87104 -1.73601 
1 10.8271 -8.85846 1.63266 
2 8.91139 -8.90279 -0.141417 
1 9.05453 -10.713 1.44921 
1 -12.6019 -5.42595 0.0298829 
1 -12.3601 -7.3706 -1.68574 
2 -10.601 -7.17682 0.0240591 
1 -10.7289 -5.52629 -1.69554 
1 -10.644 -5.43069 1.74965 
1 -8.99252 -7.19457 -1.87781 
1 -8.84907 -7.066 1.88202 
1 -8.81467 -5.4553 -0.066256 
1 -7.07695 -7.2899 -0.111488 
1 -7.15356 -5.22705 -1.72247 
1 -5.25228 -7.17119 -1.87218 
2 -7.12469 -5.42858 1.82952 
1 -5.29805 -7.14329 1.79496 
1 -5.36967 -5.42921 -0.0871209 
1 -3.48928 -7.08721 0.00718792 
1 -1.67809 -7.13708 -1.64963 
1 -1.67948 -7.10759 1.89602 
1 -3.5578 -5.34251 -1.81201 
1 -3.53872 -5.30178 1.79456 
2 -1.76546 -5.36012 0.0736926 
1 -0.0294571 -5.35544 -1.92248 
1 0.050101 -7.03943 0.0414384 
1 0.0238122 -5.28067 1.87652 
1 3.55083 -7.10252 0.0686234 
2 1.76163 -7.14727 -1.87864 
1 1.75841 -6.91518 1.84226 
2 3.65276 -5.40527 -1.87752 
1 3.52562 -5.32357 1.81247 
1 1.72178 -5.25504 0.014181 
1 7.11102 -7.05752 -0.158401 
1 5.28541 -7.17472 -1.86667 
1 6.9514 -5.30014 -1.88676 
1 5.31494 -7.11456 1.71952 
2 7.19922 -5.44132 1.75492 
1 5.42414 -5.32899 0.0496382 
1 10.6523 -7.0996 0.112247 
1 10.6555 -5.41932 1.68535 
1 10.6367 -5.20294 -1.73464 
1 8.98786 -7.1206 -1.92633 
1 8.94873 -7.1986 1.6786 
1 8.79564 -5.37705 -0.180187 
1 12.5889 -7.08337 1.70842 
2 12.3681 -5.37925 -0.160146 
1 12.3968 -7.08964 -1.86299 
1 -14.1173 -3.66067 0.143647 
2 -14.254 -1.91293 -1.59021 
1 -14.2214 -1.78031 1.72601 
1 -12.4767 -3.66318 -1.63308 
1 1.69351 -1.83881 14.2882 
1 1.70277 -3.50872 12.3668 
1 -12.2128 -3.63039 1.77719 
1 -12.5581 -1.89958 0.0700982 
1 -10.7338 -3.63831 -0.0927872 
1 -10.8376 -1.82041 -1.65634 
1 -10.7428 -1.6486 1.65855 
1 -9.00237 -3.56393 -1.65256 
2 -9.06825 -3.61373 1.61121 
1 -8.81161 -1.66321 -0.0220907 
1 -7.09522 -3.54272 -0.0505415 
1 -6.99706 -1.85042 -1.66288 
1 -7.24263 -1.76552 1.7887 
1 -5.28821 -3.48954 -1.79101 
2 -5.34765 -3.56364 1.76658 
2 -5.31245 -1.78634 0.0681151 
1 -1.80109 0.0243913 2.03947 
1 -3.53899 -3.50695 -0.0114087 
1 -3.61643 -1.72011 -1.79471 
2 -1.78371 -3.59936 -1.79072 
2 -3.54023 -1.64092 1.8829 
1 -1.80843 -3.50448 1.81082 
1 -1.76659 -1.72185 0.00100731 
1 0.0149488 -1.74211 -1.7384 
1 0.00312939 -3.53196 0.120205 
1 0.00300743 -1.82684 1.87469 
2 3.64058 -3.61433 -0.0332814 
2 1.73272 -3.55437 -1.86053 
1 3.58027 -1.74486 -1.82227 
1 1.81236 -3.5559 1.92402 
1 3.61048 -1.75691 1.88397 
1 1.75588 -1.73925 -0.00435741 
2 1.73608 -0.0725143 1.81805 
1 3.45306 -1.8742 12.4998 
2 3.68889 0.102418 -0.147729 
1 -0.0429628 -0.233451 14.1321 
1 7.12865 -3.62015 0.00710822 
1 7.08418 -1.78479 -2.03728 
1 7.10625 -1.79249 1.75428 
1 5.26928 -3.37984 -1.99179 
1 5.47243 -3.54783 1.80715 
2 5.49602 -1.86753 -0.0720882 
1 5.40366 0.00283846 -1.91072 
1 10.5303 -3.5965 -0.0870039 
1 10.7699 -1.82055 1.59407 
1 10.5484 -1.80522 -1.88772 
1 8.76041 -3.50629 -1.87617 
1 8.97883 -3.62292 1.71426 
2 8.77259 -1.81621 -0.0924199 
1 12.2909 -3.42036 -1.83662 
1 12.3901 -1.87993 -0.159377 
2 12.453 -3.68593 1.70896 
1 12.4366 -0.0604939 1.63614 
2 -0.161352 -3.75561 14.0628 
1 -0.137991 -1.8853 12.4581 
1 -3.74709 -1.72102 12.4907 
2 14.0624 -3.57833 -0.286721 
1 14.5666 -1.46393 -1.53771 
1 14.2557 -1.86348 1.43204 
2 -5.23569 -12.606 3.2941 
2 -3.00853 -14.0827 3.31874 
1 -0.132261 -14.0916 3.64328 
2 -3.49139 -12.3203 5.30618 
1 3.46795 -14.1094 3.47955 
1 -10.6195 -10.6653 3.50164 
1 -10.8537 -9.02243 5.21626 
2 -8.73095 -8.92324 3.52748 
2 -8.8074 -10.6771 5.28619 
1 -7.13654 -11.0918 3.4106 
1 -5.38218 -10.8502 5.24058 
1 -6.96864 -8.89033 5.3092 
2 -5.47969 -8.87584 3.41277 
1 -1.78329 -12.2297 3.50954 
1 -1.7114 -10.4811 5.38395 
1 -3.52996 -10.5581 3.45345 
2 -3.62779 -8.87793 5.19911 
1 -1.76965 -8.88197 3.51812 
2 -0.156304 -12.4499 5.32494 
1 3.48087 -12.6774 5.36236 
1 0.109041 -10.4851 3.57073 
1 1.68325 -12.4378 3.67651 
1 -0.106533 -8.81268 5.44307 
1 1.67029 -10.5765 5.31952 
2 3.43421 -10.6245 3.73618 
1 3.49854 -8.81369 5.47775 
1 1.83216 -8.59096 3.59858 
1 5.35421 -12.582 3.49597 
1 7.08474 -10.7805 3.5936 
1 5.27325 -10.8179 5.3907 
2 7.16077 -8.90804 5.33834 
2 5.32618 -8.78381 3.60326 
1 8.8365 -10.685 5.44136 
2 9.02395 -9.1649 3.41317 
2 10.4119 -8.72451 5.28729 
1 -12.324 -5.42719 3.37048 
1 -10.7101 -7.16965 3.60443 
1 -10.6655 -5.41362 5.28106 
1 -8.84678 -7.24729 5.31256 
1 -9.04628 -5.44095 3.56266 
1 -7.0175 -7.05552 3.64345 
1 -7.1964 -5.39569 5.34663 
1 -5.32953 -7.15516 5.51836 
2 -5.28339 -5.33973 3.72395 
1 -1.87412 -7.03383 5.25739 
1 -3.61282 -7.13735 3.48814 
1 -3.6343 -5.34541 5.5017 
2 -1.88092 -5.30886 3.54069 
2 0.0142975 -5.31253 5.36556 
1 0.135901 -7.07593 3.67743 
1 1.93354 -6.96415 5.38334 
1 3.66735 -7.01459 3.57503 
1 3.73353 -5.30759 5.34949 
1 1.94222 -5.25489 3.61432 
1 7.36722 -7.21503 3.49828 
1 5.32339 -7.22392 5.47379 
2 7.27205 -5.25316 5.48546 
2 5.45504 -5.38299 3.64921 
1 10.687 -7.22898 3.47596 
1 10.7537 -5.54034 5.34551 
1 8.87139 -7.11968 5.42613 
1 9.01692 -5.34348 3.56155 
2 12.4333 -5.58127 3.61996 
1 -14.0386 -3.56083 3.28893 
1 -14.221 0.183507 3.32352 
1 -12.5681 -3.64203 5.1711 
1 -12.489 -1.69004 3.67593 
1 -10.6048 -1.73763 5.42955 
1 -10.6324 -3.43721 3.74034 
1 -8.92619 -3.61263 5.40278 
2 -8.94603 -1.73438 3.55568 
1 -12.7085 0.0295866 5.38768 
1 -7.32239 -1.72233 5.43799 
2 -7.25797 -3.57043 3.66237 
1 -5.43494 -3.51891 5.52947 
1 -5.58113 -1.72247 3.66174 
2 -3.55713 -1.73054 5.42064 
2 -1.77878 -3.45387 5.39007 
1 -3.59818 -3.44226 3.6516 
1 -1.71948 -1.76729 3.58289 
1 0.0961631 -1.84883 5.35102 
1 -1.84561 -3.56588 12.2795 
1 0.0272792 -3.46302 3.63491 
1 2.02609 -3.51677 5.18447 
1 3.58543 -1.62433 5.27705 
1 3.67723 -3.52716 3.62008 
1 1.76479 -1.67013 3.64474 
1 -1.88395 -2.01794 14.1253 
1 7.10087 -1.66512 5.26321 
1 7.17618 -3.524 3.51593 
1 5.43585 -3.26822 5.34236 
1 5.42492 -1.77412 3.49497 
1 5.38743 0.0469519 5.31583 
2 10.7577 -1.81525 5.3665 
1 10.6092 -3.5747 3.38777 
2 8.92469 -3.51286 5.2962 
1 8.96593 -1.7398 3.43265 
2 12.4836 -1.90595 3.53894 
1 12.4044 -3.85521 5.16325 
1 14.3484 -3.68553 3.19817 
1 14.1628 -2.16952 5.22682 
1 -8.80878 -8.90434 7.00234 
1 -5.2705 -9.14842 10.588 
1 -5.17994 -10.7895 8.5172 
1 -7.03472 -10.8054 6.98602 
2 -7.05514 -9.02575 8.63148 
1 -5.23805 -8.87912 7.01258 
1 -1.85066 -12.3403 7.17973 
2 -1.66017 -8.96856 10.7019 
1 -1.79846 -10.7147 8.94582 
1 -3.47198 -10.6852 7.07617 
1 -3.51984 -8.99371 8.92785 
1 -1.89714 -8.68816 7.12249 
1 -0.153142 -10.5712 7.13503 
1 0.0171806 -8.84827 8.83168 
1 1.69643 -12.2096 7.12898 
1 1.5486 -10.5014 8.87465 
1 3.49649 -10.6371 7.06006 
1 3.56291 -8.91778 8.96654 
1 1.70804 -8.86502 7.10858 
1 1.77653 -8.99747 10.939 
1 7.13821 -10.6023 7.17496 
1 5.21318 -8.86996 10.7783 
1 5.16039 -10.6625 8.89692 
1 6.9669 -8.89851 9.09512 
1 5.48185 -8.9271 7.11498 
1 8.94248 -8.74696 7.35722 
1 -10.771 -5.40982 9.09771 
2 -10.5315 -7.27539 6.99929 
1 -8.90285 -7.21656 8.80157 
1 -8.98705 -5.53047 7.09138 
1 -8.98377 -5.52596 10.5459 
1 -7.12468 -7.25927 10.5391 
1 -7.15208 -5.49355 8.83405 
1 -5.25357 -7.2809 8.86787 
1 -7.14694 -7.15681 7.03971 
1 -5.43138 -5.39715 7.0884 
1 -5.39689 -5.48751 10.796 
2 -3.67658 -7.23986 10.8421 
1 -1.81297 -5.37535 10.6203 
1 -1.70991 -7.12157 9.01706 
2 -3.71487 -5.37297 8.92718 
1 -3.61621 -7.05095 7.10741 
1 -1.79378 -5.3923 7.2535 
1 0.0396137 -7.07678 7.06784 
2 0.0936118 -5.31543 8.96066 
1 0.0515993 -7.14381 10.6889 
1 3.49264 -6.91706 10.7153 
1 1.81611 -5.19223 10.6239 
1 1.84909 -7.31855 9.05829 
1 3.54474 -5.20697 8.86729 
1 3.57219 -7.27261 7.20995 
2 1.86475 -5.44828 7.17028 
1 6.92161 -6.9453 10.7192 
1 5.25975 -5.2244 10.5131 
1 5.30526 -7.0957 8.9131 
1 7.07227 -5.17427 8.8418 
1 7.15912 -7.05888 7.31235 
2 5.31445 -5.35011 7.17295 
1 8.6457 -5.05703 10.7109 
1 10.6375 -5.08243 9.22843 
1 10.746 -7.15494 7.5053 
1 8.77645 -6.86362 9.13479 
1 9.06624 -5.31252 7.32337 
2 -12.2205 -1.66149 7.0882 
1 -9.14222 -1.90033 10.4306 
1 -11.165 -2.73851 9.28952 
2 -10.7933 -3.82756 7.06709 
1 -8.87888 -3.74155 8.92227 
2 -9.16241 -1.81225 7.37217 
1 -11.4886 -0.462446 9.12173 
1 -7.27176 -3.64241 10.8079 
1 -5.39471 -1.6789 10.6382 
1 -7.22017 -1.6352 9.02814 
2 -5.52657 -3.64582 8.96118 
1 -7.22338 -3.5966 7.08225 
1 -5.5681 -1.72254 7.28911 
1 -3.65003 -3.5428 10.6515 
1 -1.88958 -1.79045 10.7745 
1 -3.60698 -1.78916 8.98882 
2 -1.82786 -3.43357 9.00501 
1 -3.59768 -3.48975 7.20352 
1 -1.83451 -1.68292 7.07936 
1 0.0657905 -3.48326 10.6424 
1 -3.62782 0.0578878 10.6823 
1 0.0547743 -1.64453 9.024 
2 0.0775423 -3.3517 7.1554 
1 1.92889 -1.66055 6.95209 
2 3.52676 -3.41563 7.10366 
1 1.83402 -1.74923 10.6914 
1 1.83263 -3.39093 8.88094 
1 3.63774 -1.72078 8.97766 
1 3.49308 -3.53464 10.6191 
1 3.49901 0.0217673 10.764 
1 5.41563 -3.37217 8.86221 
1 7.14676 -3.31332 7.04715 
1 5.26937 -1.71155 10.7318 
1 7.21633 -1.5887 9.01898 
1 5.41723 -1.61937 7.16594 
1 7.01697 -3.41452 10.6388 
1 7.2083 0.0946266 6.98816 
1 7.13969 0.0598804 10.85 
1 -7.1009 -1.75252 12.3381 
1 10.8911 -3.70028 7.1357 
2 10.6827 -2.04268 8.92601 
1 8.78563 -3.35881 8.84962 
1 8.91144 -1.71012 10.7343 
1 8.89006 -1.71784 6.93562 
2 12.5958 -1.87048 7.16617 
1 0.109624 -8.72019 12.7085 
1 -0.0241123 -6.39979 14.1862 
1 -3.39568 -5.24998 12.4392 
1 -1.51993 -6.97432 12.4542 
1 -0.0246756 -5.12498 12.1702 
1 3.69504 -5.26642 12.4484 
2 1.73087 -6.88028 12.5256 
1 2.10002 -4.98152 14.1257 
1 -5.3599 0.0154773 12.5397 
1 -5.30898 -3.54861 12.4295 
2 -2.02209 0.0227986 -12.4036 
2 3.37614 -0.305909 -14.3315 
1 -10.9222 -0.181518 -7.14124 
1 -8.94997 -0.216048 -8.83362 
1 -5.44076 -0.125155 -8.92543 
1 -0.063047 0.027969 -7.06408 
2 1.68296 0.0619829 -8.9299 
1 3.40695 0.0456448 -7.11257 
2 7.171 -0.0510719 -10.7453 
1 5.09633 -0.0518196 12.561 
1 3.50137 -0.149627 14.3524 
2 10.6115 -0.0255094 -7.23357 
2 -7.0565 0.0969359 -3.40615 
1 -3.48533 0.14809 -3.48673 
1 5.31447 -0.0187075 -5.39646 
1 7.07488 0.0215835 -3.66696 
1 10.67 0.0465065 -3.60413 
2 -12.4425 0.0723037 1.71309 
1 -10.7414 0.0698265 -0.133052 
1 -5.25573 0.0264902 -1.70702 
2 -5.43558 0.0559541 1.87305 
1 -0.06082 0.0521185 -0.0835415 
2 12.348 -0.145951 -1.77128 
1 -7.21424 0.150218 3.51878 
1 -3.67116 0.07068 3.71734 
1 -1.77778 -0.0172269 5.31358 
2 7.17978 0.0940567 3.56669 
2 10.7693 0.11876 3.50117 
2 14.1348 -0.0851721 3.39116 
1 -1.79242 0.0305435 8.94765 
2 -0.000370236 -0.0451323 7.01441 
1 3.65938 -0.0205338 7.12248 
1 1.78944 -0.0311989 8.83644 
1 5.37913 -0.0352245 8.92926 
1 -7.2096 1.75961 -12.3503 
1 -5.65471 3.58643 -12.3169 
2 -1.87872 2.01186 -14.2682 
2 -3.76412 1.94484 -12.6842 
1 -1.7494 3.58678 -12.4258 
1 -3.7723 -0.0517473 -14.3401 
2 -0.0884169 1.68541 -12.4818 
1 -0.0882399 3.56806 -14.2181 
2 -0.238985 0.0767266 -14.5205 
1 -1.6331 8.97405 10.8554 
1 3.38661 3.50547 -14.2911 
1 3.39196 1.66934 -12.516 
2 1.66424 3.50431 -12.49 
1 1.80416 1.63455 -14.4675 
1 3.37105 5.32083 12.5562 
2 1.68579 -0.11476 -12.3725 
1 4.86253 1.66179 -14.3844 
1 7.0402 1.61424 -12.6635 
1 5.05719 3.3738 -12.5526 
2 5.27066 -0.0699685 -12.6069 
1 -1.92135 7.2382 -12.4887 
1 -3.59267 5.15358 -12.6463 
1 -0.18434 5.40273 -12.5018 
1 1.6764 7.02147 -12.4744 
1 3.5066 5.33276 -12.4949 
1 -12.4376 1.96583 -7.07783 
1 -11.7846 3.66014 -9.16775 
1 -8.99412 1.69604 -10.5835 
2 -9.19192 3.65269 -8.82607 
2 -9.07422 1.69421 -7.15139 
1 -10.867 3.73874 -6.9967 
1 -10.91 1.43617 -9.03477 
1 1.85138 7.21998 12.5231 
1 -3.48342 5.32222 12.4634 
1 -7.35377 3.58174 -10.5434 
2 -5.37654 1.74023 -10.5878 
2 -7.23576 1.70203 -8.80868 
1 -5.43404 3.60744 -8.98216 
1 -7.14253 3.52778 -7.17528 
2 -5.35304 1.71139 -7.09173 
1 -7.30495 -0.0822318 -10.6596 
1 -1.74222 7.00824 12.4102 
1 -7.16174 -0.0603479 -7.06494 
1 -3.6805 3.62509 -10.7399 
1 -1.89303 1.77343 -10.704 
1 -3.62178 1.89888 -8.8371 
2 -1.89358 3.62261 -8.93344 
2 -3.68162 3.5764 -6.93987 
1 -1.85265 1.77917 -7.06332 
1 -0.107457 1.90077 -8.97556 
1 -0.0946521 3.59413 -7.1087 
1 -1.85007 0.0411314 -8.85314 
1 -3.59794 -0.0221324 -7.21553 
1 0.254855 5.41164 12.5894 
1 -0.0701978 3.65548 -10.7267 
1 -3.62323 -0.0307499 -10.5066 
1 3.51928 3.56743 -10.7472 
1 1.81184 1.88549 -10.7251 
1 3.56633 1.8224 -8.94236 
2 1.81006 3.69244 -9.04042 
1 3.60086 3.54587 -7.17289 
2 1.75951 1.92552 -7.17706 
1 5.2185 3.67533 12.7429 
1 7.01545 1.79111 12.5306 
1 3.594 -0.0173768 -10.7833 
2 6.94482 3.46397 -10.6958 
1 5.21417 1.81085 -10.8647 
1 7.19616 1.79412 -8.94293 
1 5.33535 3.5422 -9.02115 
1 7.05354 3.59219 -7.28416 
1 5.27742 1.94688 -7.18258 
2 7.05489 0.173686 -7.15252 
2 5.33155 0.051128 -8.88239 
1 1.60499 1.51496 14.3447 
1 8.81386 1.81801 -10.7731 
2 10.769 1.81048 -8.82487 
1 8.90513 3.53984 -8.90474 
1 8.87484 1.87722 -7.09941 
1 10.6566 3.78313 -7.11698 
1 8.8404 0.0320879 -8.94772 
1 10.4867 -0.0314667 -10.6964 
1 2.95642 3.68176 14.2397 
2 12.4556 1.85732 -7.05044 
1 -10.761 5.68972 -8.59875 
1 -10.5518 7.14415 -6.92212 
1 -8.95996 7.3333 -8.78694 
1 -8.93379 5.348 -7.04743 
1 -8.89067 5.53205 -10.5068 
2 -5.54458 5.41941 -10.6968 
1 -7.11967 7.31222 -10.4365 
1 -7.06529 5.32527 -8.8062 
1 -5.44067 7.27947 -8.76153 
2 -7.14553 7.21471 -7.13551 
1 -5.50166 5.36012 -7.02297 
2 -3.71232 7.12197 -10.7756 
1 -1.87387 5.35104 -10.7945 
1 -1.83397 7.27254 -8.82646 
2 -3.69253 5.53539 -8.77994 
1 -3.62998 7.11707 -6.9936 
1 -1.804 5.43134 -6.97308 
2 -0.173712 5.48797 -8.8708 
1 -0.0390112 7.15664 -10.6958 
1 -0.0508165 7.27245 -6.9472 
1 3.64559 7.05464 -10.8084 
1 1.70701 5.37317 -10.7898 
2 1.74019 7.13162 -8.92455 
1 3.66008 5.27233 -8.97249 
1 3.50068 7.19264 -7.25958 
1 1.84043 5.44403 -7.18552 
1 7.06636 6.98792 -10.7198 
1 5.30745 5.18642 -10.7479 
1 7.09813 5.30388 -8.94472 
1 5.38464 7.13335 -8.87882 
1 7.15656 7.03737 -7.25238 
1 5.20811 5.34452 -7.28746 
1 8.84847 5.21251 -10.6656 
1 10.7579 5.06795 -9.18472 
1 8.89142 6.99303 -8.98337 
1 8.79596 5.23347 -7.19212 
2 10.6248 6.68249 -7.1415 
1 -8.92169 8.98766 -7.02764 
1 -5.19367 8.97979 -10.4997 
1 -5.14024 10.7448 -8.71949 
1 -7.11771 9.2528 -8.76558 
1 -5.3747 9.00447 -7.11573 
1 -7.05379 10.7952 -6.90792 
2 -1.83905 8.83964 -10.6813 
2 -1.85823 10.7582 -8.89148 
1 -3.63289 10.9006 -7.0855 
1 -3.56814 8.8473 -8.76038 
1 -1.94744 8.87491 -7.01479 
1 -0.211546 10.6207 -7.13616 
1 -0.137655 8.97288 -8.8295 
1 0.0626267 10.4815 -10.6387 
1 1.6578 8.81858 -10.7325 
1 1.8106 10.7328 -8.99761 
1 3.63692 10.7403 -7.14188 
1 3.50782 8.84115 -8.93553 
1 1.73174 8.96468 -7.19511 
2 1.46994 12.3209 -7.17002 
1 5.48659 8.75362 -10.7431 
1 5.32191 10.4325 -8.90796 
1 7.15833 10.5173 -7.10185 
1 7.15206 8.74446 -8.89599 
1 5.36366 8.81576 -7.17585 
1 9.05843 8.66282 -7.14899 
1 -1.69165 12.5966 -7.03473 
2 -14.2567 3.48801 -3.11566 
1 -14.3255 0.233944 -3.24681 
2 -12.6028 3.7712 -5.19407 
1 -12.7304 0.00917442 -5.19573 
1 -12.5385 1.891 -3.35874 
2 -10.8319 1.82928 -5.10032 
1 -10.7952 3.67903 -3.3645 
1 -8.98282 3.58669 -5.45645 
2 -8.99185 1.87071 -3.42364 
2 -8.99252 0.0268607 -5.24011 
1 -7.21587 1.86943 -5.29962 
2 -7.16787 3.69539 -3.43875 
1 -5.36506 3.5886 -5.18741 
1 -5.39418 1.89844 -3.48755 
1 3.44198 1.74338 12.7107 
1 -3.54538 1.77683 -5.24696 
1 -1.82202 3.65034 -5.30246 
1 -3.62616 3.67509 -3.51752 
1 -1.75204 1.85276 -3.5942 
1 -0.0953589 1.71793 -5.47238 
1 -0.0321538 3.63763 -3.69128 
1 -1.83841 -0.105928 -5.36872 
1 1.70468 3.43171 12.3626 
1 3.60026 1.92622 -5.37612 
2 1.68385 3.66032 -5.35893 
1 3.56147 3.75721 -3.67547 
2 1.6353 1.86769 -3.62385 
1 3.64971 0.131476 -3.69025 
1 6.98956 1.96428 -5.44962 
1 7.0841 3.6256 -3.66361 
1 5.32639 3.67464 -5.42849 
1 5.55266 1.83705 -3.53546 
1 -1.78978 -0.063755 12.4219 
1 -1.62283 1.73668 14.3038 
1 10.7043 1.90275 -5.28514 
1 10.5675 3.60731 -3.63635 
2 8.86357 3.60819 -5.3416 
1 8.78409 1.73913 -3.63857 
1 8.9453 0.0564486 -5.31963 
1 12.3447 3.62203 -5.40357 
1 -3.39516 3.54939 14.1889 
1 12.4683 1.71555 -3.64025 
1 13.9895 3.44321 -3.60472 
1 -12.5864 5.51815 -3.3404 
1 -10.7436 7.29528 -3.44155 
1 -10.7247 5.38384 -5.15758 
2 -8.87797 7.12449 -5.20385 
1 -8.90733 5.3399 -3.56053 
1 -7.14743 7.06937 -3.45438 
1 -7.1717 5.20262 -5.33636 
1 -5.61551 7.06789 -5.3086 
1 -5.40839 5.33727 -3.59533 
1 -1.88103 7.09762 -5.38343 
1 -3.5125 7.20895 -3.46512 
1 -3.69691 5.42883 -5.24676 
1 -1.78422 5.50927 -3.5707 
1 -0.0742385 5.47583 -5.40363 
2 -0.0571617 7.31991 -3.69112 
1 1.7419 7.24987 -5.54828 
2 3.52251 7.25109 -3.54183 
1 3.52828 5.46155 -5.34905 
1 1.7202 5.52463 -3.62077 
1 7.13172 7.23745 -3.57804 
1 7.10313 5.31641 -5.34698 
2 5.36225 7.13572 -5.51081 
1 5.4039 5.38995 -3.64163 
1 10.6725 7.23537 -3.39835 
1 10.5759 5.40812 -5.10315 
1 8.91998 7.14796 -5.34306 
1 8.87586 5.49333 -3.46395 
2 12.4579 5.34922 -3.45314 
1 -10.5733 9.03173 -5.25731 
1 -8.94964 10.7891 -4.97169 
1 -8.85513 8.9465 -3.38738 
1 -10.8073 10.5235 -3.29001 
1 -6.98653 10.6666 -3.32464 
1 -5.31889 10.8803 -5.16467 
1 -7.13724 8.96295 -5.12683 
1 -5.30478 9.01066 -3.43409 
1 -1.88265 10.7579 -5.29653 
1 -3.39471 10.7871 -3.46274 
2 -3.65194 8.94151 -5.30324 
1 -1.80118 9.03882 -3.50435 
1 -0.104764 9.12751 -5.39629 
1 -1.71234 12.596 -3.45938 
1 -0.124812 10.7658 -3.42415 
2 1.63875 10.7466 -5.3323 
1 3.60096 10.7035 -3.63721 
1 3.49391 9.1094 -5.38644 
1 1.83025 8.97426 -3.581 
1 -0.180322 12.4795 -5.19954 
1 1.74214 12.4321 -3.55005 
1 3.59186 12.4722 -5.52116 
1 7.25127 10.8271 -3.69274 
2 5.50398 10.8645 -5.48195 
1 7.18311 8.92094 -5.34094 
2 5.37089 9.01154 -3.63386 
1 10.7606 8.61769 -5.36211 
1 9.01481 10.307 -5.31201 
1 8.91268 8.95935 -3.49482 
1 -5.34084 12.5432 -3.50481 
1 -3.51247 12.6976 -5.26564 
1 -3.54602 14.2979 -3.47497 
1 0.0109678 14.6057 -3.47564 
2 1.66422 14.0794 -5.26107 
1 3.49901 14.2351 -3.63263 
1 5.35583 12.6008 -3.61985 
1 -14.2749 -0.100704 0.118346 
1 -14.4578 3.74492 -0.263011 
1 -14.3783 1.7299 -1.49475 
1 -14.5301 1.94824 1.45983 
1 -12.4572 3.89882 -1.60348 
2 -12.5371 3.67442 1.59305 
1 -12.5076 1.71407 -0.0464812 
2 -3.60082 1.75491 12.5636 
2 -10.6308 3.7414 -0.0792758 
1 -10.8201 1.8793 -1.7806 
1 -10.6856 1.88079 1.69894 
1 -8.95243 3.79868 -1.72882 
1 -8.89672 3.70758 1.88276 
1 -8.92322 1.91743 -0.0118739 
2 -8.90315 0.188801 1.74844 
2 -1.58521 3.49839 12.3776 
1 -7.15281 3.65562 -0.0653773 
1 -7.19488 1.90552 -1.77872 
1 -7.18928 2.02782 1.80429 
1 -5.34206 3.52134 -1.76872 
1 -5.44813 3.52385 1.71491 
1 -5.36748 1.79167 -0.0361944 
1 -7.07875 0.137842 0.0508121 
2 0.214222 3.46223 14.2433 
1 0.0288015 1.65098 12.4802 
2 -3.57585 3.58885 -0.0274669 
1 -3.56676 1.77019 -1.73681 
2 -1.68736 3.6836 -1.82105 
1 -3.59151 1.79456 1.81631 
1 -1.88118 3.64216 1.72304 
1 -1.84568 1.73569 0.130673 
1 -0.145721 1.73966 -1.71963 
1 -3.58986 0.0618845 0.0183695 
1 -0.0966968 1.90822 1.87437 
1 -0.0782841 3.63597 0.0792785 
1 -1.86576 0.00248362 -1.70603 
1 -5.44927 3.60205 12.434 
2 3.47538 3.52831 -0.0959416 
1 3.52234 1.86971 -2.00277 
2 1.59709 3.68962 -1.8746 
1 3.54462 1.72522 1.75784 
1 1.59774 3.65962 1.75204 
2 1.64137 1.76408 -0.0518967 
1 7.05302 3.66102 -0.156321 
1 7.20135 1.92858 -1.87555 
1 7.05538 1.89552 1.86051 
1 5.38408 3.58674 -1.97111 
1 5.3045 3.48116 1.80135 
2 5.43242 1.85504 -0.173394 
1 7.03064 -0.0156584 -0.022031 
1 10.6409 3.60145 -0.000307674 
1 10.7406 1.95891 1.68117 
2 10.7177 1.84874 -1.81013 
1 8.88027 3.62251 -1.87291 
1 8.86166 3.49109 1.66376 
1 8.8413 1.7477 -0.0825257 
1 12.3852 3.58038 -1.80512 
1 -7.14811 1.79735 12.3699 
1 12.4489 3.76918 1.78125 
1 12.4853 1.84813 0.0373949 
1 14.2951 0.237361 0.220333 
1 14.2467 3.50874 -0.0449667 
2 14.2325 1.59972 -1.87985 
1 14.2507 2.0471 1.86279 
1 -12.578 5.51325 0.0155965 
1 -12.4195 7.32714 -1.60865 
1 -12.3524 7.138 1.93608 
1 -10.6203 7.01024 0.099993 
1 -10.6856 5.53437 -1.77667 
1 -10.709 5.34868 1.92363 
1 -8.76666 7.23583 -1.67266 
2 -9.03641 7.18872 1.79528 
1 -8.70229 5.41514 0.110424 
1 -7.01302 7.18244 0.0821935 
1 -7.02905 5.45385 -1.75496 
2 -5.27799 7.12854 -1.72536 
1 -7.11523 5.40905 1.80483 
1 -5.31302 7.13571 1.77195 
1 -5.28488 5.2963 -0.0278998 
1 -3.56149 7.21236 0.0859239 
1 -1.76629 7.29643 -1.74989 
1 -1.81053 7.34411 1.91746 
1 -3.45507 5.50622 -1.79281 
1 -3.65068 5.42069 1.81786 
2 -1.73102 5.57105 0.0526114 
1 -0.0110692 5.46926 1.78539 
1 0.125501 7.21142 0.0718736 
1 0.0125881 5.44319 -1.83002 
1 3.53669 7.18746 -0.013578 
1 1.8412 7.22733 -1.68154 
2 1.76476 7.14554 1.7847 
1 3.65335 5.2458 -1.81409 
2 3.44294 5.22091 1.79496 
1 1.6798 5.41977 -0.073666 
1 7.1643 7.14514 -0.0218656 
1 7.07318 5.42062 -1.83249 
2 5.42488 7.15309 -1.75742 
1 7.02575 5.34781 1.68639 
1 5.30203 7.05711 1.68591 
1 5.30598 5.3271 0.00407186 
1 10.5383 7.07411 -0.0729325 
1 10.6875 5.33193 1.75502 
1 10.6437 5.35812 -1.84311 
1 8.86648 7.25908 -1.74045 
2 8.82498 7.15419 1.84554 
1 8.84054 5.3167 0.00609533 
2 12.3102 6.97515 1.672 
1 12.2381 7.22206 -1.69658 
1 12.5369 5.28505 -0.149954 
2 -8.78478 10.7505 -1.66594 
1 -8.87629 10.869 1.71897 
2 -10.4767 8.83742 -1.43506 
1 -10.7621 9.22377 1.43999 
1 -8.70535 8.96943 0.132161 
1 -7.05543 10.8431 0.00815768 
1 -5.30247 10.8303 1.80377 
1 -5.28348 10.8612 -1.72335 
1 -7.02085 8.99863 -1.68632 
1 -7.02658 9.04191 1.84736 
1 -5.36247 8.95516 -0.014059 
1 -7.1168 12.6209 1.8622 
2 -5.34908 12.7207 0.106 
1 -3.55325 10.8032 0.114352 
2 -1.73542 10.8687 1.90066 
1 -1.85202 10.9141 -1.67597 
1 -3.49473 9.08443 -1.5421 
2 -3.5742 8.98079 1.78201 
1 -1.71677 8.95056 -0.00323005 
1 -3.51181 12.6477 -1.69076 
1 0.0509588 10.7877 0.00437843 
1 -1.68388 12.635 0.127706 
1 -0.0446094 9.10457 1.84053 
2 0.108349 9.01523 -1.79668 
1 3.56179 10.8026 0.160482 
1 1.73116 10.7194 1.81766 
1 1.81034 10.8124 -1.83555 
1 3.52043 9.04798 -1.73493 