ITEM: TIMESTEP
1620000
ITEM: NUMBER OF ATOMS
1289
ITEM: BOX BOUNDS pp pp pp
-100 100
-100 100
-100 100
ITEM: ATOMS type x y z 
1 -1.88816 -6.92274 -12.5378 
1 -3.61918 -5.18573 -12.5576 
1 0.0512181 -5.42791 -12.3071 
1 1.65298 -7.12565 -12.487 
1 3.49017 -5.32469 -12.5911 
1 -7.02875 -1.5295 -12.4207 
2 -5.42118 -3.56364 -12.2039 
2 -1.75941 -1.80638 -14.2695 
2 -3.7015 -1.69184 -12.5637 
1 -1.78175 -3.5371 -12.3754 
1 -0.025697 -1.79674 -12.392 
1 -0.110333 -3.73583 -14.1342 
2 3.25192 -3.3056 -14.2006 
1 1.62355 -3.59865 -12.4066 
1 3.55428 -1.73173 -12.334 
1 1.47265 -1.76857 -14.1776 
1 5.22753 -1.68423 -14.3738 
2 7.04449 -1.68075 -12.5256 
2 5.23986 -3.44075 -12.563 
2 5.20391 0.0360351 -12.5606 
1 -9.0932 -9.0245 -6.94733 
2 -5.54845 -10.5589 -8.66127 
1 -5.52194 -8.93332 -10.5645 
1 -7.33656 -8.82306 -8.90137 
1 -5.57067 -8.84591 -6.96561 
1 -7.25075 -10.7042 -6.95963 
1 -1.98554 -12.6335 -7.20816 
1 -1.99416 -10.8044 -8.93788 
1 -1.96155 -8.93931 -10.8555 
1 -3.71992 -10.7298 -7.11931 
2 -3.64095 -8.95228 -8.8708 
1 -1.81321 -8.9796 -7.1373 
1 -0.156145 -10.8424 -10.4595 
1 -0.207331 -8.97834 -8.94856 
2 -0.0907711 -10.7183 -7.24667 
1 1.74345 -12.6152 -7.22362 
1 1.63157 -9.1358 -10.8421 
2 1.82029 -10.8304 -9.04172 
1 3.58096 -10.7392 -7.20935 
2 3.49958 -8.94516 -9.07394 
1 1.6932 -8.97322 -7.23454 
1 5.50742 -10.8295 -8.84425 
1 7.28713 -8.9938 -9.09245 
1 5.38441 -8.84423 -7.30455 
1 7.14847 -10.6214 -7.17653 
1 5.49481 -9.0719 -10.6943 
1 8.91934 -8.81528 -7.04838 
1 -10.6768 -5.19558 -8.88403 
1 -8.80331 -5.26914 -10.5831 
1 -9.12876 -7.14873 -8.99025 
2 -8.86085 -5.33128 -7.19147 
2 -10.7162 -7.06044 -7.04668 
1 -7.14405 -7.04391 -10.4703 
1 -5.47625 -5.34769 -10.6867 
1 -7.07668 -5.22474 -8.91424 
1 -5.4351 -7.06653 -8.76929 
2 -7.2851 -7.19926 -7.2029 
1 -5.42648 -5.36589 -6.97568 
2 -3.77848 -7.06794 -10.7269 
1 -1.91804 -5.40914 -10.769 
1 -1.95019 -7.16338 -9.16271 
1 -3.73268 -5.33046 -8.79644 
1 -3.64894 -7.19803 -7.14085 
2 -1.9563 -5.2698 -7.27269 
1 -0.0706514 -7.35304 -10.6397 
2 -0.0192913 -5.2915 -9.07605 
2 -0.175022 -7.27234 -7.2396 
2 3.63227 -7.07063 -10.7614 
1 1.91342 -5.41022 -10.6987 
1 1.76134 -7.21591 -9.10062 
1 3.61649 -5.22503 -8.88891 
1 3.5724 -7.23696 -7.16708 
2 1.83307 -5.44379 -7.22904 
1 7.06111 -6.7925 -10.795 
1 5.31923 -5.21276 -10.768 
1 5.42657 -7.23469 -9.00116 
1 7.09716 -5.24178 -8.8681 
1 7.17172 -7.12021 -7.25636 
1 5.33811 -5.42461 -7.24411 
1 8.97614 -5.08165 -10.4896 
1 10.8858 -4.9641 -8.7295 
1 10.8347 -6.8897 -7.0539 
2 8.9172 -6.8886 -8.82509 
1 8.94967 -5.2272 -7.08842 
1 -12.5379 -1.80437 -6.93822 
1 -10.7775 -2.12669 -8.80863 
1 -8.953 -1.63917 -10.6281 
1 -10.895 -3.58855 -7.06703 
1 -8.80384 -3.49013 -8.81738 
1 -9.02447 -1.77912 -7.03308 
1 -7.18593 -3.35099 -10.556 
1 -5.49021 -1.58192 -10.6092 
1 -7.13453 -1.68793 -8.85821 
1 -5.37122 -3.45498 -9.03813 
1 -7.06654 -3.53776 -7.15679 
1 -5.26919 -1.64149 -7.16216 
1 7.4088 -1.70905 12.4569 
1 -3.52734 -3.55035 -10.7765 
1 -1.85733 -1.79154 -10.6863 
1 -3.67139 -1.78713 -9.10793 
2 -1.86321 -3.57216 -9.0833 
1 -3.7258 -3.51929 -7.0592 
1 -1.80088 -1.86461 -7.21202 
1 -0.0853509 -3.50334 -10.7517 
1 -0.0428221 -3.56808 -7.13794 
1 0.0267703 -1.72845 -8.98546 
2 5.284 -3.21673 12.3832 
1 -0.204075 0.0188553 -10.6314 
1 3.39276 -3.53725 -10.7623 
1 1.67716 -1.80027 -10.6757 
1 1.802 -3.54617 -8.9403 
2 3.56448 -1.83226 -8.90959 
1 3.59453 -3.58242 -7.25338 
1 1.7386 -1.84632 -7.10138 
1 7.11254 -3.51511 -10.7718 
1 5.39837 -1.75472 -10.6627 
1 7.08718 -1.82843 -8.87689 
1 5.30144 -3.52954 -9.04246 
1 7.01616 -3.57383 -7.14183 
1 5.36851 -1.82295 -7.12754 
2 0.0184308 -3.81798 14.0434 
1 8.84211 -1.93216 -10.6738 
1 10.705 -3.41639 -6.8719 
1 8.81668 -3.5368 -8.69892 
2 8.78346 -1.80235 -6.98293 
2 10.5892 -1.93771 -8.81585 
1 1.81619 -1.9866 14.4215 
2 10.5412 0.151236 -7.18152 
1 8.69136 0.133995 -8.82875 
1 12.3426 -1.65126 -7.09092 
1 -1.89382 -14.1449 -5.13487 
1 -2.02003 -12.4364 -3.48742 
2 0.0843229 -14.2038 -3.60708 
1 0.137885 -12.6156 -5.56297 
2 1.92657 -12.4036 -3.57489 
1 -10.7756 -8.78714 -5.26464 
1 -9.01671 -10.6867 -5.12695 
2 -8.99488 -8.84808 -3.40453 
1 -5.34679 -12.4836 -3.46459 
1 -7.33974 -10.7433 -3.3163 
1 -5.57538 -10.797 -5.30649 
1 -7.35845 -8.84371 -5.17207 
1 -5.48501 -8.94861 -3.5297 
1 -3.78627 -12.4168 -5.43176 
2 -1.85015 -10.7586 -5.46188 
1 -3.65782 -10.703 -3.54102 
1 -3.77018 -8.91881 -5.33953 
2 -1.90889 -8.87513 -3.67333 
1 0.0271876 -9.00868 -5.39591 
1 3.49988 -12.566 -5.45249 
2 -0.0978885 -10.7521 -3.64223 
1 1.81846 -10.6657 -5.58424 
1 3.4756 -10.6537 -3.66741 
1 3.65245 -8.98215 -5.54393 
1 1.68777 -8.95969 -3.74615 
1 5.03116 -12.4587 -3.57148 
2 7.01035 -10.7911 -3.79709 
1 5.19371 -10.7362 -5.47643 
1 7.0629 -8.78871 -5.56586 
2 5.31024 -8.86774 -3.5576 
1 8.76006 -10.6728 -5.46537 
2 8.88137 -8.86487 -3.73371 
1 10.7524 -8.83105 -5.24738 
1 9.01793 -10.7635 -2.17214 
1 -12.7948 -5.54926 -3.33292 
1 -10.7769 -7.18342 -3.3668 
1 -10.9807 -5.38864 -5.36776 
2 -9.03647 -6.95587 -5.15778 
1 -8.88161 -5.20113 -3.49208 
1 -7.22285 -6.973 -3.54738 
1 -7.18967 -5.22899 -5.27442 
1 -5.48488 -7.12982 -5.25573 
1 -5.30867 -5.34828 -3.5073 
1 -1.82835 -7.16113 -5.3962 
1 -3.69993 -7.09464 -3.64018 
1 -3.58847 -5.43144 -5.34668 
1 -1.84362 -5.46961 -3.57414 
1 -0.0371433 -7.26159 -3.57923 
2 -0.156494 -5.39882 -5.27433 
2 1.85882 -7.13201 -5.33354 
1 3.50709 -7.30913 -3.619 
1 3.59269 -5.32705 -5.34547 
1 1.74761 -5.40824 -3.54273 
1 7.08654 -7.04737 -3.71512 
1 5.29191 -7.09276 -5.47135 
1 7.0359 -5.34605 -5.45512 
1 5.31026 -5.47729 -3.63478 
1 10.8123 -6.93797 -3.56531 
1 11.0349 -5.22272 -5.23034 
2 8.94211 -7.00241 -5.48893 
2 8.94799 -5.38848 -3.56879 
1 12.8727 -5.15045 -3.23076 
1 -14.4996 -3.60175 -3.03674 
1 -12.6776 -3.5452 -5.20557 
2 -12.6261 -1.89933 -3.45173 
1 -10.8396 -1.811 -5.35874 
2 -10.8032 -3.62997 -3.52759 
1 -9.03546 -3.57537 -5.40337 
2 -9.01416 -1.83546 -3.44326 
1 -10.7839 -0.052879 -3.52083 
2 -7.14423 -1.92182 -5.27965 
1 -7.06736 -3.5852 -3.43132 
1 -5.3998 -3.57991 -5.31821 
1 -5.28837 -1.76525 -3.63458 
1 1.84164 -3.60414 12.3776 
1 -1.91191 -8.78906e-05 -5.32654 
1 -3.59758 -1.80098 -5.37903 
1 -1.98121 -3.54061 -5.38814 
1 -3.69981 -3.60588 -3.62945 
1 -1.77311 -1.81995 -3.60998 
1 -0.153715 -1.82829 -5.37861 
1 -0.0598512 -3.5209 -3.6302 
1 3.41915 -1.82219 12.4972 
1 1.78516 -3.61612 -5.39731 
1 3.51858 -1.86043 -5.23725 
1 3.47174 -3.71346 -3.66095 
2 1.77896 -1.73647 -3.59554 
1 0.0781794 -0.335011 14.5379 
1 7.00087 -1.75554 -5.25959 
1 6.95196 -3.58465 -3.50684 
1 5.32533 -3.64127 -5.41066 
1 5.19966 -1.70881 -3.6213 
1 -1.781 -1.76869 14.2448 
1 10.4901 -1.62286 -5.20692 
1 10.4802 -3.41654 -3.6614 
1 8.72177 -3.61576 -5.25448 
1 8.64955 -1.75596 -3.59428 
1 12.1746 -1.71995 -3.51637 
2 12.3259 0.0397183 -5.26442 
1 -3.53018 -1.75353 12.5278 
1 10.6054 0.0431755 -3.57625 
2 12.5316 -3.31258 -5.13979 
2 14.2397 -2.86864 -3.01555 
1 -1.90792 -3.55468 12.5132 
1 -5.1094 -12.6757 0.119731 
2 -7.01678 -12.5238 1.62014 
1 -1.76608 -14.2768 -1.90496 
1 -3.38359 -14.2144 0.0393486 
1 -1.28072 -14.2792 1.39875 
1 -3.72885 -12.4611 -1.67272 
1 0.309296 -14.6243 -0.382367 
1 2.17168 -14.3576 -1.74665 
1 3.62506 -14.2129 0.256362 
2 1.39921 -14.2416 1.75521 
1 4.94343 -14.0576 -1.72324 
1 -10.8407 -10.5937 0.127674 
1 -10.8344 -9.09353 -1.70816 
1 -9.00237 -10.7174 -1.42924 
1 -9.02179 -8.72529 -0.0591686 
2 -10.7307 -8.87951 1.85206 
2 -8.79083 -10.8227 1.66515 
2 -7.09041 -12.5145 -1.27199 
1 -7.16099 -10.4422 0.115993 
2 -5.47416 -10.6221 -1.6828 
2 -5.16859 -10.5778 1.6832 
1 -7.19684 -8.86996 -1.77583 
1 -7.00692 -8.71537 1.79896 
1 -5.27842 -8.80933 -0.000485807 
1 -1.71208 -12.403 -0.214721 
1 -3.27042 -12.4832 1.63719 
1 -3.41811 -10.6939 -0.0381619 
1 -1.80569 -10.6249 -1.84013 
1 -1.84927 -10.5901 1.67142 
1 -3.57918 -8.92525 -1.79179 
1 -3.49321 -8.70103 1.71645 
1 -1.75606 -8.92772 -0.0569995 
1 0.0204356 -10.643 -0.118675 
1 -0.144778 -12.2177 1.74501 
2 -0.0393621 -12.5232 -1.85314 
1 -0.0882549 -8.88409 -1.81669 
1 0.0341002 -8.92466 1.76396 
1 3.37834 -12.2396 1.7629 
2 1.71932 -12.4485 0.0389208 
1 3.54625 -12.266 -1.67649 
1 3.63964 -10.6814 -0.014625 
1 1.74245 -10.4983 -1.80831 
1 1.69994 -10.5505 1.75436 
1 3.56353 -9.02605 -1.73286 
1 3.52109 -8.86667 1.78807 
1 1.69777 -8.93259 0.0465338 
1 5.24834 -12.5234 0.165115 
1 7.22096 -12.1502 1.82908 
2 6.988 -12.3987 -1.77584 
1 6.92238 -10.6072 -0.138694 
1 5.31935 -10.7269 -1.76461 
1 5.31276 -10.7897 1.90422 
1 7.27136 -8.8943 -1.90623 
2 7.11062 -9.05693 1.7452 
1 5.40005 -8.88322 -0.0270947 
1 8.87604 -11.8661 -0.203953 
1 10.6901 -8.85115 -1.89027 
1 10.7434 -8.83864 1.7698 
2 8.95879 -9.11083 -0.0460853 
1 8.98981 -10.5955 2.09616 
1 -12.4902 -5.42362 0.127893 
1 -12.5814 -7.23744 -1.65202 
2 -10.8596 -7.22892 0.0579366 
1 -10.7721 -5.36874 -1.7475 
1 -10.9038 -5.4959 1.94277 
1 -8.96311 -7.04412 -1.79788 
1 -8.98938 -7.05862 1.65778 
1 -9.01993 -5.42924 -0.015505 
1 -7.13651 -7.18266 0.0298046 
1 -7.2172 -5.33826 -1.68463 
1 -5.46345 -7.03708 -1.77149 
2 -7.1644 -5.48068 1.71368 
1 -5.27508 -7.03648 1.80965 
1 -5.42193 -5.43864 -0.132658 
1 -3.55923 -7.06446 -0.115434 
1 -1.81965 -7.11801 -1.83809 
1 -1.70504 -7.21763 1.68773 
1 -3.72209 -5.37799 -1.81067 
1 -3.58313 -5.38917 1.64829 
2 -1.79864 -5.36111 0.0403956 
1 -0.0428678 -5.3889 -1.80242 
1 0.113956 -5.32346 1.92538 
1 -0.0124702 -7.11056 -0.061529 
1 3.50219 -7.18386 0.0353513 
2 1.74782 -7.22552 -1.90222 
1 1.69489 -7.11777 1.78076 
2 3.62574 -5.49932 -1.7995 
1 3.52267 -5.30092 1.79629 
1 1.65369 -5.35844 0.0423102 
1 7.21533 -7.19911 -0.0405399 
1 5.32734 -7.22451 -1.71681 
1 6.99744 -5.37025 -1.85894 
1 5.18793 -7.0592 1.75775 
2 7.21278 -5.47159 1.68371 
1 5.41052 -5.44343 -0.0398198 
1 10.5921 -7.0734 -0.115943 
1 10.6435 -5.3065 1.68194 
1 10.6209 -5.19376 -1.83153 
1 8.89111 -7.11673 -1.85356 
1 8.96133 -7.08436 1.76563 
1 8.81773 -5.30827 -0.1808 
1 12.4318 -7.2003 -1.74944 
2 12.4323 -5.35274 -0.111818 
1 12.3914 -7.22606 1.67611 
1 0.0197302 -1.85939 12.6066 
1 -14.0445 -3.58318 0.0254802 
2 -14.0417 -1.71547 -1.58575 
1 -14.2395 -1.71288 1.76965 
1 -12.505 -3.67893 -1.73851 
1 -12.4595 -1.76338 0.155686 
1 -12.4462 -3.61467 1.82204 
1 -7.25896 -1.54505 12.3157 
1 -10.8265 -3.6313 0.0819543 
1 -10.831 -1.87339 -1.62719 
1 -10.6939 -1.71819 1.74298 
1 -8.91409 -3.60012 -1.64858 
2 -9.17218 -3.69917 1.75856 
1 -8.9328 -1.75036 -0.0250427 
1 -7.18328 -3.58634 0.0270049 
1 -7.21653 -1.75355 -1.78936 
1 -7.0775 -1.79162 1.89446 
1 -5.36033 -3.55719 -1.7746 
2 -5.29974 -3.74761 1.71252 
2 -5.37952 -1.73204 -0.114752 
1 -5.39862 -3.36427 12.5399 
1 -3.60116 -3.56623 -0.0395155 
1 -3.57371 -1.85347 -1.89645 
2 -1.83032 -3.63203 -1.87794 
2 -3.54842 -1.74816 1.84287 
1 -1.87552 -3.56811 1.81231 
1 -1.77958 -1.85924 0.0536709 
1 -0.11941 -1.6833 -1.86451 
1 -0.00950135 -1.82214 1.93092 
1 0.00423152 -3.57951 0.0871108 
2 3.70628 -3.55482 0.0515956 
2 1.64058 -3.69202 -1.77503 
1 3.46913 -1.87826 -1.8529 
1 1.76871 -3.50921 1.72801 
1 3.53361 -1.78643 1.85984 
1 1.6641 -1.76519 -0.0222999 
2 1.75446 -0.0049933 1.87549 
1 1.7248 -0.0408193 -1.80598 
1 7.1465 -3.53334 -0.0602329 
1 6.94907 -1.74605 -1.82661 
1 7.11703 -1.91527 1.92572 
1 5.21264 -3.62882 -1.87351 
1 5.46432 -3.62075 1.86488 
2 5.50985 -1.78988 0.101769 
1 -0.143447 -5.44545 12.2234 
1 7.18064 0.013114 0.0616616 
1 10.5718 -3.5349 -0.107788 
1 10.5906 -1.99786 1.84239 
1 10.4287 -1.69011 -1.78508 
1 8.83143 -3.47735 -1.85753 
1 8.89789 -3.62783 1.93301 
2 8.81006 -1.8594 0.0531514 
1 12.169 -3.37328 -1.84766 
1 12.182 -1.75015 -0.161641 
2 12.5706 -3.51676 1.54026 
2 14.1433 -3.39757 -0.431801 
1 14.6156 -1.05284 -1.52299 
1 14.222 -1.59464 1.44529 
2 -4.95033 -12.6016 3.29431 
2 -2.8549 -14.1544 3.16287 
1 -0.350175 -14.144 3.61859 
1 3.33822 -13.9855 3.2352 
1 -10.579 -10.6226 3.50941 
1 -10.4864 -8.91295 5.26669 
2 -8.70043 -8.82447 3.38212 
2 -8.6055 -10.6278 5.2141 
1 -6.95645 -10.7683 3.41778 
1 -5.22604 -10.9249 5.30093 
1 -7.05319 -8.83304 5.33745 
2 -5.3598 -8.84007 3.51493 
2 -3.26397 -12.3923 5.23403 
1 -1.68649 -12.1295 3.38251 
1 -1.82266 -10.5067 5.29958 
1 -3.55713 -10.5588 3.50948 
2 -3.50271 -8.87639 5.45985 
1 -1.69713 -8.80479 3.64387 
2 -0.0535584 -12.3124 5.2224 
1 0.0269899 -8.74983 5.44196 
1 3.45121 -12.4586 5.28536 
1 0.049956 -10.4931 3.4455 
1 1.5418 -12.4518 3.43688 
1 1.75027 -10.4562 5.37154 
2 3.36867 -10.7673 3.64519 
1 3.50833 -8.78949 5.33585 
1 1.83344 -8.80438 3.53899 
1 5.27822 -12.6021 3.53469 
1 7.18156 -10.811 3.87453 
1 5.19222 -10.6573 5.41121 
2 7.11017 -8.79034 5.48775 
2 5.27316 -9.0037 3.64513 
1 8.928 -10.597 5.54266 
2 8.98491 -8.76103 3.80279 
2 10.859 -8.48238 5.44045 
1 -12.7176 -5.48886 3.50955 
1 -10.739 -7.18818 3.57304 
1 -11.0764 -5.62049 5.23054 
1 -8.89564 -7.02336 5.36959 
1 -9.06354 -5.39188 3.61552 
1 -7.18748 -6.928 3.53985 
1 -7.01352 -5.4147 5.38102 
1 -5.35632 -7.1921 5.30909 
2 -5.1573 -5.38234 3.72402 
1 -1.75406 -7.08549 5.49505 
1 -3.48725 -7.1292 3.44906 
1 -3.56005 -5.41841 5.47604 
2 -1.74281 -5.35995 3.57224 
1 0.0110425 -7.16196 3.54037 
2 0.11496 -5.47609 5.44392 
1 1.83485 -7.18606 5.42253 
1 3.50474 -7.13995 3.63671 
1 3.5873 -5.33476 5.44171 
1 1.91345 -5.30083 3.65081 
1 7.07013 -7.08875 3.51614 
1 5.32824 -7.11693 5.41207 
2 7.11476 -5.33642 5.33889 
2 5.27506 -5.32799 3.61311 
1 10.7871 -7.06085 3.53589 
1 10.906 -5.49228 5.44499 
1 8.92349 -7.00266 5.56616 
1 9.01557 -5.42868 3.62455 
2 12.5212 -5.34446 3.51273 
1 -14.106 -3.39046 3.52106 
1 -12.5879 -3.61241 5.42302 
1 -12.4179 -1.75817 3.49189 
2 1.85085 -7.07275 12.3966 
1 -10.6615 -1.7783 5.25606 
1 -10.9169 -3.57441 3.68326 
1 -8.92499 -3.69355 5.41355 
2 -8.99007 -1.93473 3.6357 
1 -12.4346 -0.114255 5.37073 
1 -7.23534 -1.63362 5.46765 
2 -7.06809 -3.58265 3.637 
1 -5.27993 -3.4695 5.39244 
1 -5.32851 -1.69117 3.61134 
1 -7.16949 -0.0593845 3.75761 
2 -3.56626 -1.67416 5.30265 
2 -1.80874 -3.4915 5.42119 
1 -3.53334 -3.53522 3.58718 
1 -1.77501 -1.63614 3.63231 
1 0.0501356 -3.46409 3.61127 
1 0.0470622 -1.67052 5.29637 
1 1.84828 -3.46862 5.33317 
1 3.57313 -1.80492 5.44686 
1 3.47433 -3.55931 3.51554 
1 1.77978 -1.79851 3.61802 
1 1.91895 -5.28663 14.1831 
1 3.75525 -0.00871245 3.60098 
1 3.60274 -5.13478 12.4867 
1 7.08082 -1.82888 5.44868 
1 7.09635 -3.58305 3.64479 
1 5.34154 -3.46071 5.44048 
1 5.29694 -1.83732 3.67232 
2 10.6544 -1.83961 5.35113 
1 10.6869 -3.64629 3.58793 
2 8.94957 -3.7077 5.49615 
1 8.76882 -1.86271 3.68058 
2 12.4966 -1.78495 3.51663 
1 12.7573 -3.53484 5.29822 
1 14.3985 -3.44915 3.17269 
1 14.4033 -1.73407 5.12627 
2 14.2376 0.0485789 3.28836 
1 -1.85454 -6.95304 12.5637 
1 -8.88034 -8.86146 7.09025 
1 -5.18019 -9.1299 10.6472 
1 -5.11723 -10.7759 8.68358 
1 -6.94383 -10.6103 7.05525 
2 -6.97499 -8.85471 8.92239 
1 -5.34805 -8.8538 7.08385 
1 -1.56125 -12.4572 7.05811 
2 -1.90438 -8.83666 10.9933 
1 -1.77931 -10.7138 8.99461 
1 -3.42958 -10.8436 7.03978 
1 -3.51889 -8.88352 8.91663 
1 -1.83258 -8.87418 7.25331 
1 -0.132845 -10.4809 7.24321 
1 -0.144609 -8.99497 9.063 
1 1.46146 -12.0767 7.07729 
1 1.70401 -10.5087 9.04302 
1 3.45642 -10.6733 7.08061 
1 3.52201 -8.80051 9.07871 
1 1.69932 -8.78881 7.26984 
1 1.77235 -8.88854 10.799 
1 7.09776 -10.4687 7.26171 
1 5.33999 -8.83221 10.6771 
1 5.19387 -10.3482 8.81877 
1 7.13108 -8.7631 9.0931 
1 5.21324 -8.70781 7.13118 
1 8.89275 -8.78622 7.20093 
1 -10.6447 -5.21163 9.20259 
2 -10.5394 -6.88589 7.07097 
1 -8.83705 -6.96165 8.92683 
1 -8.77879 -5.29217 7.16478 
1 -8.88167 -5.22931 10.6896 
1 -7.15307 -7.00228 10.7527 
1 -7.10999 -5.31135 8.87558 
1 -5.36907 -7.23223 8.82983 
1 -7.07993 -7.10404 7.11206 
1 -5.34412 -5.35831 7.15346 
1 -5.6159 -5.34487 10.7987 
2 -3.87534 -7.18764 10.708 
1 -2.00637 -5.43415 10.6892 
1 -1.997 -7.20623 8.97479 
2 -3.68266 -5.33531 8.9039 
1 -3.56964 -7.12321 7.23377 
1 -1.78245 -5.31676 7.03998 
1 -0.200783 -7.11504 7.32835 
2 -0.124324 -5.28029 8.95287 
1 0.00805921 -7.1943 10.7425 
1 3.63638 -6.94513 10.7862 
1 1.80505 -5.22296 10.7441 
1 1.63262 -7.06051 8.97932 
1 3.49833 -5.29758 9.11054 
1 3.47739 -7.07464 7.22841 
2 1.79625 -5.34624 7.27833 
1 7.01545 -6.952 10.7295 
1 5.45553 -5.2219 10.9006 
1 5.30751 -7.06106 8.98953 
1 7.17815 -5.32897 9.00115 
1 7.07556 -7.07324 7.34781 
2 5.23433 -5.36626 7.31991 
1 8.91918 -5.09897 10.7191 
1 10.5041 -5.10314 8.97928 
1 10.647 -7.09347 7.38744 
1 8.87962 -7.0936 9.03347 
1 8.89334 -5.39609 7.20183 
2 -12.0816 -1.71136 7.31693 
1 -9.10444 -1.64401 10.5605 
1 -11.059 -2.74747 9.25634 
2 -10.7141 -3.86498 6.99349 
1 -8.74269 -3.56695 8.89663 
2 -9.11417 -1.84948 7.30365 
1 -11.1432 -0.327295 9.38172 
1 -7.3244 -3.32216 10.8048 
1 -5.36072 -1.80908 10.6543 
1 -7.19683 -1.61147 8.92756 
2 -5.45679 -3.41043 8.88087 
1 -7.12196 -3.43272 7.02598 
1 -5.40828 -1.60971 7.10177 
1 -3.65112 -5.18669 12.5163 
1 -0.0890001 -6.43998 14.2945 
1 -3.62255 -3.47937 10.7719 
1 -1.82969 -1.91555 10.7956 
1 -3.59666 -1.71853 8.89853 
2 -1.85742 -3.43343 8.9068 
1 -3.67875 -3.51766 7.1089 
1 -1.76073 -1.60535 7.21285 
1 0.0107875 -1.77871 9.0638 
1 -0.00182518 -3.55366 10.7928 
2 0.0407793 -3.40892 7.11495 
1 1.85988 -1.64036 7.24435 
2 3.65135 -3.45182 7.27526 
1 1.75746 -1.9079 10.6869 
1 1.73117 -3.47857 8.98475 
1 3.57682 -1.62166 8.98246 
1 3.555 -3.53996 10.6014 
1 -0.0793367 -8.45777 12.7696 
2 12.7461 -1.71264 7.00892 
2 9.18936 -0.07919 9.02859 
1 7.20409 -3.45107 10.6309 
1 5.47828 -1.70348 7.28096 
1 7.14285 -3.60017 7.2453 
1 5.38616 -1.53375 10.6377 
1 5.38817 -3.49134 9.07616 
1 7.29709 -1.76773 8.96569 
2 10.7285 -2.14462 8.73524 
1 11.0835 -3.78069 7.14522 
1 8.84637 -3.61428 8.77004 
1 8.9184 -1.73935 7.17926 
1 9.23641 -1.99269 10.6997 
1 12.3201 -0.0756466 8.98988 
1 -3.54199 0.0281798 -14.4609 
1 -10.566 0.0417083 -10.3011 
1 -8.86814 -0.00623524 -8.67298 
1 -1.94092 -0.0588467 -8.98506 
1 -3.61512 0.061842 -10.7206 
1 3.50332 0.0183843 -7.16327 
1 -14.1879 0.271839 -3.36748 
1 5.4029 -0.286613 12.696 
2 -8.96288 0.0341612 -5.35954 
1 6.95521 0.0650263 -3.46491 
1 3.51511 0.00356523 14.3151 
1 -10.6496 0.0216949 0.0811869 
1 -5.34857 0.010104 -1.80429 
1 -7.14321 0.0362634 -0.0921039 
1 -3.4517 0.0786923 -0.0147443 
1 -3.6609 -0.117996 14.266 
1 -1.71299 -0.0439101 12.5083 
2 3.52377 -0.105326 -0.0933796 
1 5.25469 0.0823629 -1.73968 
1 8.67589 0.00193648 -1.7556 
1 12.4819 0.0531404 1.51871 
2 12.4292 0.0116537 -1.69252 
1 -14.1647 0.11456 3.68029 
1 -0.0426233 0.0156863 3.52877 
1 -7.25521 0.117938 10.6829 
1 -3.61725 0.0156899 10.6557 
1 -0.0298536 -0.0870686 10.7217 
1 3.49985 -0.0491308 10.8709 
1 7.23577 0.0107331 7.05933 
1 7.32533 -0.121663 10.8426 
1 5.46535 0.013407 8.85262 
2 10.7508 0.123284 7.04735 
1 -7.55178 1.8948 -12.3455 
1 -5.49022 3.69641 -12.5492 
1 -5.43419 0.161898 -12.723 
2 -1.75925 1.92283 -14.3384 
2 -3.59514 1.90166 -12.6636 
1 -1.77773 3.75343 -12.446 
2 -0.102822 1.9219 -12.4275 
1 0.0924441 3.76051 -14.3925 
1 0.0438431 5.21691 12.4902 
2 -1.79864 0.088565 -12.5389 
1 3.5157 3.64815 -14.1835 
1 3.31435 1.82828 -12.4205 
2 1.6717 3.64938 -12.4148 
1 1.72922 1.70007 -14.2666 
2 1.69014 0.0288026 -12.396 
2 3.31117 -0.123206 -14.2698 
2 -0.0391349 0.0272227 -14.4849 
1 4.77977 1.74599 -14.408 
1 6.95803 1.9301 -12.8309 
1 5.21581 3.52743 -12.4565 
1 -1.69835 7.14524 -12.3729 
1 -3.59688 5.3442 -12.4866 
1 -0.0563262 5.34767 -12.5112 
1 1.8129 7.08099 -12.3587 
1 3.49654 5.30099 -12.5235 
1 -12.6065 1.70141 -7.09323 
1 -11.0717 2.11315 -8.96135 
1 -9.19238 1.98163 -10.6917 
2 -9.07925 3.78708 -8.93346 
2 -9.1258 1.91988 -7.20668 
1 -10.8794 3.74776 -7.09819 
1 1.84488 5.13487 14.218 
1 3.65046 4.96636 12.6847 
1 -10.8814 -0.0678839 -7.25921 
1 -7.14439 3.64113 -10.6175 
2 -5.50849 1.81302 -10.7888 
2 -7.30849 1.82454 -8.79061 
1 -5.41627 3.62831 -8.94507 
1 -7.28773 3.65104 -7.12366 
2 -5.38593 1.77847 -7.0207 
1 -7.33458 0.090322 -10.594 
1 -5.37968 0.05363 -9.00371 
1 -3.6716 3.54133 -10.7401 
1 -1.94646 1.88368 -10.6917 
1 -3.63304 1.74232 -8.94544 
2 -1.76841 3.51194 -8.86659 
2 -3.57933 3.55923 -7.08755 
1 -1.83649 1.68446 -7.09709 
1 -0.0728719 1.66303 -8.88523 
1 1.75467 7.01114 12.5004 
1 -0.140839 3.55834 -10.66 
1 -3.51367 -0.0777992 -7.23018 
1 -3.21525 5.38739 12.4992 
1 -0.208136 3.5428 -6.98641 
1 3.50082 3.56621 -10.6534 
1 1.65754 1.84941 -10.6458 
1 3.54404 1.83201 -9.01703 
2 1.65476 3.57683 -8.93612 
1 3.66566 3.58594 -7.24294 
2 1.64463 1.70315 -7.0626 
1 3.50428 0.0688505 -10.7296 
2 1.79405 0.0034522 -9.01676 
1 -1.44894 7.09194 12.4202 
2 7.08892 3.64267 -10.8002 
1 5.30627 1.89829 -10.8176 
1 6.97887 1.85652 -8.81888 
1 5.30203 3.58976 -8.9738 
1 7.008 3.70993 -7.11689 
1 5.18757 1.85368 -7.05128 
2 7.13192 -0.0164263 -6.99922 
2 5.40897 0.0464571 -9.01139 
1 8.92088 2.06987 -10.8547 
2 10.5625 1.91891 -8.83908 
1 8.70477 3.53133 -8.85286 
1 8.76504 1.84525 -7.10354 
1 10.5827 3.56595 -7.03501 
2 12.545 1.85342 -6.99651 
1 -10.8503 5.47154 -8.8481 
1 -10.774 7.04045 -6.95422 
1 -9.12597 7.22359 -8.76726 
1 -9.01463 5.3961 -7.07051 
1 -8.76183 5.4924 -10.6508 
2 -5.47026 5.44328 -10.747 
1 -7.12022 7.42577 -10.5857 
1 -7.16345 5.42714 -8.80909 
1 -5.4389 7.2951 -8.83879 
2 -7.19906 7.21036 -7.04823 
1 -5.3542 5.48015 -7.08284 
2 -3.72206 7.29491 -10.7151 
1 -1.8039 5.43195 -10.6554 
1 -1.86562 7.26272 -8.69982 
2 -3.58857 5.4306 -8.88808 
1 -3.72762 7.2474 -7.03343 
1 -1.97468 5.50726 -6.9872 
1 -0.0943502 7.15675 -10.558 
1 -0.0767322 7.22143 -7.07884 
2 -0.131067 5.3826 -8.66933 
1 3.66974 7.31369 -10.8003 
1 1.6646 5.34688 -10.6378 
2 1.75013 7.27724 -9.00512 
1 3.46935 5.46452 -8.98227 
1 3.51889 7.1702 -7.12868 
1 1.7827 5.49875 -7.15802 
1 7.13348 7.15286 -10.6847 
1 5.24621 5.41126 -10.6357 
1 6.98063 5.28248 -8.94142 
1 5.32211 7.14942 -8.93071 
1 7.19313 7.05059 -7.20672 
1 5.1901 5.43772 -7.18369 
1 8.97814 5.16099 -10.7337 
1 10.7115 4.96419 -8.99238 
1 8.87828 6.78982 -9.05157 
1 8.74039 5.27798 -7.03844 
2 10.6441 6.63508 -7.10566 
1 -8.98856 9.1497 -6.98317 
1 -5.37478 9.04935 -10.5865 
1 -5.14346 10.6038 -8.84735 
1 -7.2008 9.12292 -8.82061 
1 -5.41216 9.04972 -6.95869 
1 -6.99812 10.8875 -6.97591 
2 -1.80294 8.95455 -10.5651 
2 -2.08779 10.6592 -8.78327 
1 -3.73759 10.9565 -6.96574 
1 -3.60695 8.84563 -8.75274 
1 -1.94972 9.05093 -7.11333 
1 -0.00569998 11.8824 -9.227 
1 -0.0827013 10.6477 -7.04973 
1 -0.0727407 8.9625 -8.80579 
1 -1.69036 12.4574 -7.03665 
1 1.00407 9.15329 -10.9753 
1 1.95227 10.5788 -9.09698 
1 3.53028 10.7796 -7.22946 
1 3.57029 9.00084 -8.90444 
1 1.77256 9.02941 -7.1299 
1 5.44313 8.97992 -10.5225 
1 5.52439 10.6125 -8.71972 
1 7.43062 10.501 -7.16115 
1 7.32401 8.85177 -8.91347 
1 5.38701 8.8496 -7.10013 
1 9.15819 8.59193 -7.16297 
2 1.7207 12.3004 -7.39031 
2 -14.075 3.69375 -3.34829 
1 5.57121 3.266 12.5675 
2 -12.6176 3.64716 -5.38591 
1 -12.467 1.86492 -3.5187 
1 -12.5101 -0.0193941 -5.24803 
2 -10.7931 1.84637 -5.30537 
1 -10.7448 3.73221 -3.53079 
1 -9.00637 3.67831 -5.37287 
2 -8.91925 1.9695 -3.48462 
1 7.33046 1.58437 12.5281 
1 -7.24304 1.87984 -5.37082 
2 -7.06675 3.65618 -3.59035 
1 -5.38056 3.71288 -5.40147 
1 -5.34745 1.91548 -3.62807 
2 -7.07752 0.077673 -3.5386 
1 -3.4964 1.76636 -5.2658 
1 -1.83945 3.67255 -5.26232 
1 -3.64962 3.713 -3.72425 
1 -1.89384 1.80341 -3.63027 
1 -0.189177 1.64543 -5.28173 
1 -0.0331895 3.57507 -3.70191 
1 -0.0593685 -0.0289756 -3.67506 
1 3.46143 1.77529 -5.31452 
2 1.68742 3.51584 -5.39342 
1 3.60078 3.67874 -3.5648 
2 1.7483 1.72778 -3.56546 
1 1.80901 -0.162593 -5.44388 
1 7.03661 1.84604 -5.33588 
1 7.01133 3.51503 -3.56679 
1 5.26156 3.59901 -5.33594 
1 5.23501 1.75895 -3.61129 
1 1.75639 1.70944 14.2731 
1 10.548 1.83688 -5.31972 
1 10.6372 3.46848 -3.53671 
2 8.78229 3.50924 -5.35502 
1 8.78709 1.78139 -3.50249 
1 12.4063 1.73521 -3.5619 
1 12.4338 3.69851 -5.40539 
1 14.1923 3.30969 -3.62589 
1 -12.5802 5.48927 -3.57109 
1 -10.9935 7.29708 -3.58633 
1 -10.7527 5.43717 -5.24391 
2 -8.98405 7.23749 -5.23962 
1 -8.94125 5.42573 -3.59504 
1 -7.08727 7.10755 -3.57011 
1 -7.16609 5.42504 -5.30602 
1 -5.43453 7.26209 -5.25775 
1 -5.34865 5.45736 -3.54669 
1 -1.83274 7.32764 -5.37122 
1 -3.51652 7.14834 -3.52398 
1 -3.70772 5.51517 -5.29356 
1 -1.73761 5.41246 -3.71548 
1 0.00610746 5.31107 -5.48139 
2 -0.0503506 7.18547 -3.71559 
1 1.81354 7.18663 -5.46601 
2 3.4833 7.08318 -3.58289 
1 3.38502 5.3766 -5.35691 
1 1.58793 5.43464 -3.63018 
1 7.04543 6.98078 -3.54867 
1 7.01487 5.33068 -5.30193 
2 5.33497 7.07388 -5.58 
1 5.25362 5.32541 -3.51586 
1 10.5344 6.91679 -3.49998 
1 10.6454 5.28739 -5.20879 
1 8.83464 6.97003 -5.34857 
1 8.73306 5.33452 -3.51385 
2 12.465 5.23882 -3.47595 
1 -10.7672 8.99252 -5.35407 
1 -8.94724 10.959 -5.26918 
1 -8.88677 8.95649 -3.53484 
1 -10.5256 10.5394 -3.52443 
1 -7.26713 10.7315 -3.50283 
1 -5.3885 10.8317 -5.01822 
1 -7.19274 9.01012 -5.21871 
1 -5.46782 9.0132 -3.37321 
1 -5.45785 12.4321 -3.34022 
1 -1.93358 10.8694 -5.16039 
1 -3.59643 10.6999 -3.39568 
2 -3.61025 9.0673 -5.37315 
1 -1.78989 8.95228 -3.605 
1 -1.86815 12.654 -3.49093 
1 -0.268779 9.07862 -5.38386 
1 -3.74026 12.5321 -5.09988 
1 -0.0800355 10.7141 -3.51106 
2 1.68669 10.7337 -5.36787 
1 3.50808 10.6536 -3.61809 
1 3.64119 9.05028 -5.35519 
1 1.72913 8.97236 -3.61903 
1 7.2155 10.7838 -3.7536 
2 5.5232 10.8184 -5.49092 
1 7.19887 8.79304 -5.46706 
2 5.4337 9.02513 -3.7299 
1 10.8042 8.35063 -5.28578 
1 9.1944 10.167 -5.41057 
1 8.77367 8.74787 -3.5684 
1 -0.163986 12.6246 -5.28732 
1 -3.72068 14.3229 -3.39335 
1 0.0984834 14.454 -3.53637 
1 1.79257 12.4998 -3.59205 
1 3.70396 12.4913 -5.31669 
2 1.80819 13.9744 -5.41732 
1 3.52218 14.264 -3.48286 
1 5.52577 12.6564 -3.66788 
1 -14.2628 3.60327 0.162753 
1 -14.0193 2.12352 -1.67068 
1 -14.5859 1.85877 1.80772 
1 -12.5635 1.87799 0.165523 
2 -12.5028 3.55231 1.9577 
1 -12.4104 0.136708 -1.71223 
1 -12.403 3.72547 -1.75491 
2 -10.6337 3.63748 0.0482443 
1 -10.7318 1.82433 -1.729 
1 -10.5985 1.82303 1.80459 
1 -8.91913 3.65611 -1.73721 
1 -8.84053 3.59523 1.76467 
1 -8.81433 1.77448 -0.0919058 
2 -8.80392 0.0130669 1.77645 
1 3.56578 1.59307 12.6119 
2 -12.4611 0.0696348 1.82487 
1 -7.12326 3.55206 0.153165 
1 -7.06922 1.87552 -1.74315 
1 -7.0923 1.87608 1.79521 
1 -5.36563 3.65637 -1.78315 
1 -5.45279 3.63888 1.78338 
1 -5.41232 1.79345 -0.105892 
1 1.684 3.29108 12.574 
1 0.0066147 1.56534 12.5053 
1 -1.79978 -0.111242 -1.84308 
1 -0.118916 -0.126883 0.0478755 
1 -3.22169 3.43443 14.2024 
2 -3.56924 3.55333 0.104646 
1 -3.63573 1.93459 -1.97202 
2 -1.72721 3.63614 -1.87586 
1 -3.59078 1.87992 1.79474 
1 -1.75219 3.68414 1.82867 
1 -1.78919 1.84295 -0.0982211 
1 0.077792 1.86818 1.81347 
1 -0.0908279 1.73755 -1.86065 
1 -1.71661 0.0295084 1.774 
2 -1.55133 3.32854 12.4261 
1 -0.0181976 3.66239 0.0669102 
2 3.54149 3.60925 -0.0359969 
1 3.51143 1.89126 -1.79291 
2 1.67128 3.81508 -1.97115 
1 3.5699 1.83897 1.72692 
1 1.87379 3.61751 1.73803 
2 1.75512 1.72744 -0.133366 
1 -1.65713 1.66678 14.4809 
1 7.033 3.50451 0.133206 
1 7.0244 1.8015 -1.69717 
1 6.9829 1.86696 2.0012 
1 5.30214 3.54141 -1.73899 
1 5.33657 3.5532 1.87394 
2 5.39845 1.68272 0.0762902 
1 10.5515 0.00384838 -0.0340884 
1 10.7984 3.57892 0.0458953 
1 10.7335 1.82948 1.72274 
2 10.5693 1.78961 -1.66445 
1 8.78581 3.52379 -1.76144 
1 8.79502 3.43312 1.80973 
1 8.82156 1.9417 0.0355623 
2 -3.61936 1.58484 12.5077 
1 12.541 1.84575 0.0880168 
2 8.87331 -0.078983 1.81438 
2 -0.104938 3.48073 14.4197 
1 12.5268 3.75697 1.75132 
1 -5.34875 3.51153 12.4807 
1 12.4938 3.60019 -1.7551 
1 14.2769 3.46675 -0.217723 
2 14.2346 1.65427 -1.81708 
1 14.2898 2.31732 2.19243 
1 14.5921 0.573763 0.391354 
1 -12.5023 5.25866 0.0337403 
1 -12.5039 7.07204 -1.48345 
1 -12.5124 6.93701 1.81218 
1 -10.7377 7.01324 0.0147331 
1 -10.6588 5.4666 -1.72045 
1 -10.6663 5.27428 1.81382 
1 -8.84419 6.98911 -1.83811 
2 -9.08639 7.15279 1.73385 
1 -8.87855 5.38703 -0.0375915 
1 -7.16134 7.13098 0.00469827 
1 -7.16213 5.32029 -1.69942 
2 -5.30992 7.12656 -1.64641 
1 -7.18753 5.40744 1.90011 
1 -5.47702 7.13843 1.85957 
1 -5.32974 5.38981 0.0547122 
1 -3.69534 7.19142 0.159502 
1 -1.72359 7.23886 -1.65308 
1 -1.74566 7.14995 1.80562 
1 -3.58876 5.44468 -1.9508 
1 -3.62378 5.41537 1.89118 
2 -1.85386 5.4161 0.0457678 
1 -0.0952415 7.11604 0.0958181 
1 0.0320147 5.36189 1.79092 
1 -0.117433 5.50655 -1.90734 
1 3.55581 7.04768 -0.0839047 
1 1.64051 7.18005 -1.66315 
2 1.83166 7.22706 1.67509 
1 3.45651 5.40542 -1.78242 
2 3.58034 5.34557 1.79117 
1 1.66226 5.30867 -0.0327636 
1 7.17593 7.14607 0.00920196 
1 7.12539 5.22589 -1.73568 
2 5.2988 7.02961 -1.76253 
1 7.05551 5.33641 1.85731 
1 5.38788 7.15947 1.8058 
1 5.42661 5.38511 0.0592862 
1 10.6107 6.95694 -0.292682 
1 10.7139 5.39449 1.77871 
1 10.6594 5.07076 -1.73726 
1 8.74249 6.97195 -1.80854 
2 9.00864 7.25925 1.75827 
1 8.83396 5.18823 0.120659 
2 12.0146 7.346 1.60919 
1 12.7218 7.14079 -1.84699 
1 12.4577 5.38115 -0.187791 
2 -9.03726 10.7813 -1.52061 
1 -8.97115 10.8802 1.7964 
2 -10.6229 8.7992 -1.72148 
1 -10.9005 8.95561 1.62589 
1 -9.0096 8.94616 0.0805826 
1 -7.18517 10.6566 0.125805 
1 -5.5207 10.8077 1.89175 
1 -5.40678 10.6576 -1.68056 
1 -7.33256 8.85433 -1.67122 
1 -7.27462 9.02618 1.76547 
1 -5.50854 8.96465 0.0972274 
1 -7.2195 12.5231 1.77389 
2 -5.61191 12.5621 -0.0674208 
1 -3.55224 10.7469 -0.0318919 
2 -1.7064 10.742 1.88878 
1 -1.80216 10.7969 -1.82287 
1 -3.4892 8.9576 -1.61549 
2 -3.76341 8.98856 1.89286 
1 -1.85451 8.94617 0.15176 
1 -3.58742 12.474 -1.7194 
1 -1.78407 12.5084 -0.0373438 
2 -3.60274 12.4696 1.67832 
1 -0.103751 12.569 1.78559 
1 0.00945184 8.92317 1.79465 
2 -0.0578563 8.98502 -1.71341 
1 -0.0781424 10.8506 -0.0774931 
1 3.45861 10.7222 0.0794203 
1 1.82946 10.76 1.75516 
1 1.71 10.7687 -1.88039 
1 3.46336 8.96295 -1.82283 
1 3.58412 8.96434 1.85781 
1 1.89927 8.9792 0.0205191 
2 1.64729 12.5089 -0.0313606 
1 7.09665 10.5887 -0.0870896 
1 5.25521 10.713 1.74159 
2 5.36624 10.6481 -1.9196 
1 7.18001 8.8986 -1.78335 