ITEM: TIMESTEP
1760000
ITEM: NUMBER OF ATOMS
1289
ITEM: BOX BOUNDS pp pp pp
-100 100
-100 100
-100 100
ITEM: ATOMS type x y z 
1 -1.65091 -7.1262 -12.6049 
1 -3.47522 -5.30907 -12.5485 
1 -0.138209 -5.14228 -12.5042 
1 1.50619 -6.91171 -12.5065 
1 3.53318 -5.36338 -12.5198 
1 -7.15617 -1.74284 -12.3506 
2 -5.40924 -3.42417 -12.4197 
2 -1.81476 -1.64635 -14.414 
2 -3.67542 -1.75704 -12.5829 
1 -1.85529 -3.46693 -12.5988 
1 -0.155405 -1.80596 -12.3823 
2 -1.81306 0.011124 -12.3935 
1 7.2547 -1.6703 12.4591 
1 -0.0869259 -3.4082 -14.1882 
2 3.4408 -3.47967 -14.1558 
1 1.66231 -3.47575 -12.395 
1 3.54004 -1.88151 -12.3824 
1 1.62694 -1.81772 -14.1991 
2 3.46869 -0.133419 -14.3356 
1 5.2439 -1.98429 -14.2303 
2 7.33765 -1.95146 -12.4959 
2 5.40065 -3.79035 -12.4476 
1 -8.8454 -8.93322 -7.08463 
2 -5.19293 -10.6733 -8.50798 
1 -5.16203 -9.06554 -10.5536 
1 -7.21352 -9.08232 -8.96718 
1 -5.43749 -8.80866 -7.02999 
1 -7.21506 -10.7009 -6.95608 
1 -1.88178 -12.7225 -7.24329 
1 -2.03981 -10.8849 -9.04542 
1 -1.78571 -8.87784 -10.7305 
1 -3.41524 -10.7091 -6.96171 
2 -3.53481 -8.9564 -8.79396 
1 -1.73102 -8.87381 -7.134 
2 -0.119942 -10.7417 -7.29444 
1 -0.0877233 -10.675 -10.4156 
1 0.033001 -8.81643 -8.91293 
1 1.68387 -12.5356 -7.09432 
1 1.48753 -8.85521 -10.7681 
2 1.88951 -10.6444 -8.82589 
1 3.71797 -10.7692 -7.26138 
2 3.58161 -8.72685 -9.07265 
1 1.82069 -8.94025 -7.23189 
1 5.30881 -10.488 -9.21606 
1 7.16611 -8.61623 -9.08398 
1 5.38177 -8.85244 -7.23188 
1 6.96798 -10.5301 -7.29118 
1 5.36408 -8.65678 -10.7973 
1 8.82306 -8.91644 -7.43503 
1 -10.7215 -5.40839 -8.84595 
1 -8.87251 -5.50067 -10.6161 
1 -9.08433 -7.24169 -8.96055 
2 -9.00428 -5.27452 -7.12631 
2 -10.7833 -7.14862 -7.00462 
1 -6.90504 -7.17436 -10.6392 
1 -5.27105 -5.23064 -10.6898 
1 -7.09567 -5.38572 -8.87947 
1 -5.38545 -7.16047 -8.87948 
2 -7.26771 -7.14387 -7.17832 
1 -5.378 -5.3718 -7.20743 
2 -3.65549 -7.08979 -10.8668 
1 -1.98134 -5.30468 -10.6648 
1 -1.90617 -7.0859 -9.07145 
1 -3.70742 -5.40077 -8.96097 
1 -3.61785 -7.10181 -7.13222 
2 -1.95591 -5.33203 -7.16138 
2 -0.0751721 -7.18973 -7.1584 
2 -0.0268273 -5.29031 -8.96765 
1 -0.0745093 -6.97095 -10.7598 
2 3.42706 -7.10446 -10.9089 
1 1.75075 -5.24355 -10.6482 
1 1.81554 -7.01885 -9.01144 
1 3.50658 -5.32758 -9.03849 
1 3.51295 -7.16914 -7.20674 
2 1.87665 -5.24804 -7.2608 
1 7.20232 -6.70452 -10.702 
1 5.17525 -5.48804 -10.6529 
1 5.29987 -6.99393 -8.83866 
1 7.05918 -5.33847 -8.66619 
1 7.01992 -7.0362 -7.18089 
1 5.10099 -5.18703 -7.08249 
1 9.24636 -4.91913 -10.6343 
1 10.7898 -5.01393 -8.66871 
1 10.8109 -7.15388 -7.26052 
2 8.93895 -6.80558 -8.78023 
1 8.87463 -5.21583 -7.0681 
1 -12.4554 -1.62562 -7.11706 
1 -10.7079 -1.97235 -8.97606 
1 -9.0077 -1.94962 -10.754 
1 -10.7885 -3.58167 -7.2178 
1 -8.96492 -3.79031 -8.91965 
1 -9.0659 -1.88579 -7.19114 
1 -7.25611 -3.65581 -10.7525 
1 -5.37365 -1.72412 -10.6998 
1 -7.35316 -1.86574 -9.003 
1 -5.4904 -3.5808 -8.90245 
1 -7.16941 -3.65985 -7.09418 
1 -5.45765 -1.82298 -7.07417 
2 5.30126 -3.33106 12.3374 
1 0.026001 -0.193969 14.2646 
1 -3.56204 -3.54939 -10.721 
1 -1.84787 -1.77343 -10.6439 
1 -3.66433 -1.76127 -8.9028 
2 -1.95866 -3.46472 -8.91689 
1 -3.62742 -3.45016 -7.14068 
1 -1.84448 -1.72922 -7.09746 
1 -0.209697 -3.53565 -10.6513 
1 0.0125501 -1.71046 -8.80957 
1 -0.133557 -3.39409 -7.10073 
1 1.87069 -2.12198 14.1573 
1 1.85779 -3.51374 12.2214 
1 -3.62736 -0.00285351 -7.10656 
1 3.59518 -3.56691 -10.7725 
1 1.73056 -1.85573 -10.752 
1 1.7801 -3.45097 -8.98957 
2 3.72538 -1.826 -8.94364 
1 3.55812 -3.52904 -7.0763 
1 1.71705 -1.80702 -7.11163 
1 -0.0391017 0.0127051 -10.5784 
1 7.09529 -3.87531 -10.7824 
1 5.52077 -1.84094 -10.8311 
1 6.94677 -1.88799 -8.944 
1 5.36878 -3.62427 -8.96471 
1 6.99124 -3.37407 -7.08865 
1 5.21953 -1.77509 -7.04618 
1 8.95982 -2.11698 -10.649 
1 10.7016 -3.4722 -6.80834 
1 8.75901 -3.56721 -8.77645 
2 8.80251 -1.7762 -7.08011 
2 10.6352 -1.90561 -8.84594 
1 12.584 -1.88931 -6.97998 
1 -5.31621 -12.4848 -3.40824 
1 -1.91402 -14.0653 -5.0593 
1 -1.87124 -12.429 -3.42777 
2 0.0158588 -14.2351 -3.56942 
2 1.95012 -12.4841 -3.68952 
1 2.25801 -14.2855 -1.89717 
1 -10.8303 -8.85934 -5.2775 
1 -9.08134 -10.5754 -5.22122 
2 -9.0663 -8.84167 -3.35194 
1 -7.23979 -10.8267 -3.59662 
1 -5.44563 -10.7966 -5.32052 
1 -7.15715 -8.94176 -5.24753 
1 -5.40289 -8.91204 -3.49056 
1 -3.70175 -12.5379 -5.36027 
2 -1.72359 -10.8823 -5.37181 
1 -3.65593 -10.6366 -3.61758 
1 -3.6604 -9.03578 -5.45585 
2 -1.79537 -8.93065 -3.53894 
2 0.0493364 -10.7303 -3.59419 
1 0.0291674 -12.5892 -5.42209 
1 0.0922372 -8.93704 -5.41343 
1 3.48824 -12.4099 -5.59927 
1 1.81253 -10.631 -5.5141 
1 3.54381 -10.5461 -3.64568 
1 3.59738 -9.00632 -5.49998 
1 1.58841 -8.92308 -3.55279 
1 5.05896 -12.4503 -3.6964 
2 7.02171 -10.7831 -3.6492 
1 5.38254 -10.8534 -5.4768 
1 6.99446 -8.80807 -5.55742 
2 5.35606 -8.85888 -3.65936 
1 8.86331 -10.3731 -5.49214 
2 8.77345 -8.83554 -3.65002 
1 10.7434 -8.85012 -5.28789 
1 -12.5777 -5.41174 -3.61749 
1 -10.9158 -7.15798 -3.62579 
1 -10.9624 -5.33049 -5.39029 
2 -8.87498 -7.08039 -5.18742 
1 -9.01027 -5.26099 -3.56131 
1 -7.14443 -6.93783 -3.52532 
1 -7.08929 -5.27233 -5.32139 
1 -5.30269 -7.23298 -5.20977 
1 -5.3623 -5.33043 -3.64686 
1 -1.94715 -7.25851 -5.30517 
1 -3.56616 -7.01025 -3.5696 
1 -3.74981 -5.34194 -5.39901 
1 -2.05911 -5.20224 -3.59847 
2 -0.22555 -5.22989 -5.26895 
1 -0.143664 -6.9823 -3.53079 
2 1.72589 -7.13278 -5.41565 
1 3.52381 -7.26016 -3.66435 
1 3.55215 -5.40488 -5.24956 
1 1.79624 -5.36645 -3.57674 
1 7.1158 -7.12273 -3.72399 
1 5.31107 -7.02342 -5.5339 
1 7.1305 -5.20394 -5.46617 
1 5.43665 -5.38496 -3.66691 
1 10.7421 -7.18773 -3.55388 
1 10.8677 -5.42543 -5.33872 
2 8.91082 -7.15852 -5.57633 
2 8.92696 -5.39834 -3.74777 
1 12.6472 -5.24144 -3.30944 
1 -14.2711 -3.62185 -3.33827 
1 -12.6865 -3.56914 -5.35185 
2 -12.5202 -1.85732 -3.46929 
1 -10.8456 -1.77659 -5.38599 
2 -10.8206 -3.66368 -3.59637 
1 -9.05043 -3.5181 -5.39225 
2 -9.06952 -1.84066 -3.41268 
2 -7.21196 -1.92944 -5.37271 
1 -7.14124 -3.5677 -3.48181 
1 -5.39162 -3.47843 -5.25836 
1 -5.41546 -1.68156 -3.44566 
1 -3.69375 -1.69266 -5.40893 
1 -1.93642 -3.39978 -5.35335 
1 -3.71148 -3.35303 -3.61709 
1 -1.84342 -1.71084 -3.6231 
1 -0.0575813 -1.73164 -5.43872 
1 -0.123219 -3.47865 -3.62153 
1 3.5687 -1.86151 12.4152 
1 1.64247 -3.51647 -5.32922 
1 3.44983 -1.8264 -5.29495 
1 3.50045 -3.5866 -3.51512 
2 1.57022 -1.63533 -3.6091 
2 0.0531396 -3.83992 13.9756 
1 6.95464 -1.79712 -5.24721 
1 7.14621 -3.64454 -3.50681 
1 5.27301 -3.60109 -5.2651 
1 5.23078 -1.78862 -3.51684 
1 10.6858 -1.74156 -5.15969 
1 10.5903 -3.541 -3.55839 
1 8.8577 -3.44457 -5.26495 
1 8.77125 -1.71102 -3.56958 
1 12.3774 -1.57137 -3.13522 
2 12.4934 -3.19711 -4.91173 
1 -1.79456 -3.50375 12.3448 
2 14.1797 -3.07301 -3.05202 
2 14.4033 -0.0407095 -3.47427 
1 -5.28485 -12.5365 0.0159976 
1 -1.75944 -14.3681 -1.7569 
1 -3.38449 -14.2601 0.0519985 
1 -1.42593 -14.2812 1.51959 
1 -3.47691 -12.5818 -1.77743 
1 0.186841 -14.5337 -0.341971 
1 3.58188 -14.1763 0.223406 
2 1.51103 -14.3007 1.80098 
1 3.37883 -12.4485 1.7716 
1 5.03926 -13.9562 -1.8337 
1 -10.8218 -10.4688 0.0864272 
1 -10.8812 -8.8184 -1.75542 
1 -9.05078 -10.7383 -1.64509 
1 -9.03498 -8.82595 -0.0311164 
2 -10.9085 -8.76487 1.87405 
2 -8.98379 -10.5285 1.74696 
2 -7.31147 -12.3736 1.6833 
2 -7.13607 -12.444 -1.41117 
1 -7.23378 -10.5505 0.0112711 
2 -5.37642 -10.7191 -1.82521 
2 -5.30748 -10.5994 1.63052 
1 -7.17554 -8.93167 -1.86653 
1 -7.14969 -8.81893 1.7056 
1 -5.29427 -8.77334 -0.0654227 
1 -3.51145 -12.5569 1.77299 
1 -1.73003 -12.3398 0.0821279 
1 -3.59821 -10.7596 -0.13797 
1 -1.8862 -10.6605 -1.78377 
1 -1.90408 -10.5847 1.76204 
1 -3.53141 -8.78472 -1.89406 
1 -3.61443 -8.84831 1.8259 
1 -1.87465 -8.86962 -0.0806291 
1 -0.0296442 -12.2681 1.79768 
1 -0.116481 -10.5361 0.0500114 
2 1.67329 -12.4598 0.0153187 
1 -0.0276175 -8.98292 -1.80284 
1 0.00408357 -8.95003 1.80734 
2 -0.0640303 -12.3869 -1.73098 
1 3.55945 -12.2017 -1.77158 
1 3.52947 -10.5746 -0.0538996 
1 1.88903 -10.6585 -1.78576 
1 1.72801 -10.6624 1.74486 
1 3.50431 -8.62757 -1.78297 
1 3.45011 -8.77584 1.80086 
1 1.65131 -8.92162 -0.0120054 
2 6.8335 -12.2798 -1.65231 
1 6.91318 -12.4469 1.65887 
1 5.20029 -12.3981 -0.0112402 
1 6.87235 -10.5318 -0.0100929 
1 5.19819 -10.3969 -1.84514 
1 5.31786 -10.7264 1.77787 
1 7.15615 -8.8979 -1.85646 
2 7.07782 -8.80872 1.75209 
1 5.19224 -8.85904 0.0479927 
1 8.69033 -12.2733 -0.0616492 
1 8.97258 -10.8004 -1.98108 
1 10.7504 -8.97341 -1.78798 
1 10.9305 -8.94413 1.73658 
2 8.90623 -9.05582 -0.152893 
1 8.87167 -10.7984 1.83107 
1 -12.6076 -7.12695 -1.93871 
1 -12.585 -5.512 0.0733032 
2 -10.7211 -7.1422 0.00852579 
1 -10.8286 -5.35486 -1.76792 
1 -10.7498 -5.43624 1.78332 
1 -9.01983 -6.95926 -1.88405 
1 -8.99081 -7.15544 1.84163 
1 -8.96448 -5.3776 -0.105131 
1 -7.32276 -7.15399 -0.0733164 
1 -7.12012 -5.31958 -1.66479 
1 -5.35882 -7.14943 -1.7657 
2 -7.23003 -5.46529 1.75285 
1 -5.3845 -7.24333 1.79502 
1 -5.40074 -5.40506 -0.023348 
1 -3.64198 -7.14955 0.0388227 
1 -1.83101 -7.09838 -1.81712 
1 -1.78718 -7.21624 1.84226 
1 -3.73443 -5.32694 -1.82569 
1 -3.72333 -5.47221 1.72523 
2 -1.84681 -5.44666 -0.0332297 
1 0.000940274 -7.17534 0.0236163 
1 -0.128241 -5.28275 -1.91262 
1 -0.0524542 -5.40039 1.91257 
1 3.50831 -7.10064 0.0659151 
2 1.66912 -7.07044 -1.80385 
1 1.6342 -7.14885 1.75992 
2 3.52207 -5.40889 -1.83654 
1 3.40156 -5.4245 1.70807 
1 1.70278 -5.3645 0.0686874 
1 7.16002 -7.21464 -0.0220053 
1 5.39738 -7.17595 -1.75211 
1 7.08354 -5.45805 -1.78719 
1 5.29851 -7.06924 1.74952 
2 7.09113 -5.37494 1.83503 
1 5.30041 -5.37511 0.00810163 
1 10.7721 -7.13929 -0.0941043 
1 10.4735 -5.37085 1.61862 
1 10.6126 -5.43351 -1.91164 
1 8.90556 -7.1045 -1.859 
1 8.93552 -7.14588 1.66679 
1 8.90641 -5.3907 -0.18744 
1 12.453 -6.93672 1.75354 
1 12.4197 -7.08036 -1.82407 
2 12.3527 -5.37203 -0.190435 
1 -14.1911 -3.65854 0.3034 
2 -14.121 -1.86694 -1.64255 
1 -14.0349 -1.70885 1.78811 
1 -12.689 -3.85309 -1.70603 
1 -12.4501 -1.84267 0.0433398 
1 -12.2957 -3.54421 1.75704 
1 -10.7379 -3.61295 -0.0211371 
1 -10.8364 -1.8881 -1.67442 
1 -10.7513 -1.75706 1.91507 
1 -8.92084 -3.61049 -1.6652 
2 -8.99994 -3.67091 1.75175 
1 -9.00637 -1.79692 0.0948663 
1 -7.05191 -3.57708 0.00915791 
1 -7.23573 -1.88627 -1.64415 
1 -7.25322 -1.74287 1.75694 
1 -5.29678 -3.58175 -1.78884 
2 -5.3354 -3.57499 1.7321 
2 -5.29168 -1.77467 -0.041892 
1 -3.66286 -3.65157 0.00542353 
1 -3.56207 -1.63245 -1.79067 
2 -1.92393 -3.51589 -1.69276 
2 -3.5446 -1.81342 1.83102 
1 -1.88072 -3.62319 1.72117 
1 -1.9236 -1.71373 -0.0294732 
1 -0.130398 -1.84041 1.79204 
1 -1.65914 -1.94986 14.2558 
1 -0.183854 -1.70483 -1.78863 
1 -0.0808016 -3.52064 0.0303776 
2 3.51953 -3.57662 0.0864575 
2 1.64083 -3.52448 -1.83478 
1 3.52136 -1.91278 -1.85996 
1 1.64154 -3.58493 1.76679 
1 3.52602 -1.76565 1.89064 
1 1.67219 -1.72864 -0.0869074 
1 -3.47969 -1.75694 12.4703 
1 -0.0612194 0.00459554 0.0570297 
1 0.013055 -1.80948 12.3823 
1 -5.4273 -3.32308 12.5557 
1 7.15677 -3.78936 -0.0926415 
1 7.07821 -1.80691 -1.90006 
1 7.10514 -1.81733 1.8052 
1 5.37175 -3.6873 -1.87816 
1 5.29554 -3.47146 1.78413 
2 5.45535 -1.91884 -0.0729851 
1 5.3615 -0.0663297 1.91147 
1 10.4517 -3.57764 -0.0845349 
1 10.619 -1.89939 1.68712 
1 10.5509 -1.78912 -1.81239 
1 8.87447 -3.68228 -1.93665 
1 8.774 -3.66815 1.72912 
2 8.77214 -1.76768 -0.0179411 
1 12.1162 -3.55622 -1.80146 
2 12.4819 -3.76405 1.56214 
1 12.3505 -1.92751 -0.114703 
1 12.2906 -0.123771 1.5644 
2 12.4758 0.100714 -1.52004 
2 14.1604 -3.5734 -0.693247 
1 14.6275 -1.14648 -1.37493 
1 14.2202 -1.94937 1.46363 
2 -5.27424 -12.4824 3.34792 
2 -2.95373 -14.0556 3.52181 
1 -0.22574 -14.0608 3.6064 
2 -0.0625181 -12.3163 5.37198 
1 3.47833 -14.1928 3.48993 
1 -10.6306 -10.6215 3.50497 
1 -10.7042 -8.83664 5.43875 
2 -8.78453 -8.81058 3.65334 
2 -8.8436 -10.5228 5.47851 
1 -7.12271 -10.8335 3.56303 
1 -5.39797 -10.9275 5.38613 
1 -7.07099 -9.01053 5.42011 
2 -5.39997 -8.99794 3.779 
2 -3.5291 -12.3918 5.40428 
1 -1.70001 -12.0411 3.55192 
1 -1.80136 -10.5839 5.37488 
1 -3.57848 -10.6941 3.44636 
2 -3.48987 -8.90623 5.39081 
1 -1.85731 -8.86239 3.54762 
1 -0.138539 -8.92423 5.50277 
1 3.56938 -12.5539 5.38655 
1 0.0499757 -10.4745 3.71034 
1 1.69906 -12.5398 3.70706 
1 1.74011 -10.6353 5.52875 
2 3.44625 -10.7167 3.58349 
1 3.5964 -8.89034 5.43184 
1 1.74514 -8.87458 3.66104 
1 5.23857 -12.4656 3.55711 
1 6.93483 -10.7017 3.65496 
1 5.32632 -10.831 5.52149 
2 7.11448 -8.85756 5.5083 
2 5.12679 -8.79504 3.59338 
1 8.94846 -10.6069 5.17687 
2 8.97996 -8.89372 3.45849 
2 10.5165 -8.72749 5.27665 
1 -12.4726 -5.34412 3.65492 
1 -10.777 -7.21659 3.68716 
1 -10.5808 -5.41595 5.22974 
1 -8.77314 -7.22481 5.35269 
1 -8.93762 -5.45219 3.52791 
1 -7.03255 -7.25538 3.62942 
1 -7.10813 -5.42994 5.27768 
1 -5.1982 -7.14088 5.46306 
2 -5.33613 -5.44671 3.67183 
1 -1.76286 -7.0488 5.32345 
1 -3.59521 -7.20862 3.56216 
1 -3.60624 -5.32183 5.34844 
2 -1.85327 -5.35144 3.5152 
1 -0.00457739 -7.27446 3.53214 
2 0.0152608 -5.31298 5.37134 
1 1.8665 -7.29036 5.39074 
1 3.50309 -7.09484 3.54617 
1 3.49309 -5.29988 5.26616 
1 1.86362 -5.36378 3.54784 
1 7.19322 -7.11525 3.69356 
1 5.36617 -7.06306 5.34743 
2 7.16688 -5.34316 5.38194 
2 5.28477 -5.35244 3.42571 
1 10.6312 -7.01371 3.46546 
1 10.8248 -5.46587 5.34489 
1 8.86631 -7.13556 5.32786 
1 8.94061 -5.39741 3.51767 
2 12.4273 -5.284 3.63018 
1 -14.0743 -3.64062 3.43822 
1 -12.5122 -3.59359 5.2469 
1 -12.5133 -1.7625 3.70773 
1 -12.388 -0.0518991 5.47752 
1 -14.1327 0.123118 3.70791 
1 -10.6606 -1.79455 5.3742 
1 -10.7741 -3.65203 3.61613 
1 -8.93826 -3.64562 5.4436 
2 -8.89319 -1.77192 3.63578 
1 -7.23015 -1.68979 5.50587 
2 -7.22944 -3.51048 3.68564 
1 -5.50133 -3.52947 5.38257 
1 -5.58172 -1.76014 3.5888 
2 -3.76205 -1.77021 5.35049 
2 -1.77173 -3.53982 5.41034 
1 -3.66182 -3.66867 3.60365 
1 -1.89303 -1.72123 3.64625 
1 0.122826 -3.48009 3.52808 
1 -0.0805638 -0.0657995 3.61603 
1 -7.10159 -1.56611 12.4639 
1 1.71645 0.00231356 5.31883 
1 -0.0290907 -1.77863 5.23967 
1 1.82008 -3.43169 5.2387 
1 3.70542 -1.78589 5.36201 
1 3.42635 -3.55261 3.47749 
1 1.89898 -1.75072 3.60352 
2 7.05959 0.0487736 3.56615 
1 7.16834 -1.88278 5.30037 
1 7.24039 -3.46216 3.44537 
1 5.34919 -3.6844 5.26416 
1 5.25412 -1.85725 3.55501 
1 5.42081 -0.137197 5.30295 
2 10.7665 -1.83658 5.33957 
1 10.6292 -3.71782 3.37873 
2 9.04382 -3.66533 5.39607 
1 8.9525 -1.8368 3.46324 
2 12.4711 -1.97459 3.41401 
1 12.6405 -3.66627 5.39678 
1 14.3377 -3.57863 3.40951 
1 14.3781 -1.57773 5.05061 
1 -9.01356 -8.7117 7.13589 
1 -5.06018 -9.1955 10.5848 
1 -5.13476 -10.8318 8.85778 
1 -6.96655 -10.8395 7.07214 
2 -7.05353 -8.94271 8.77506 
1 -5.23844 -8.98478 7.07885 
1 -1.81181 -12.2946 7.26726 
2 -1.67547 -8.70745 10.6781 
1 -1.92791 -10.6124 9.07318 
1 -3.55547 -10.637 7.20416 
1 -3.44404 -8.8448 8.91895 
1 -1.73024 -8.9127 7.24038 
1 0.0456981 -8.8856 9.00935 
1 -0.00621355 -10.6239 7.22136 
1 1.6735 -12.4593 7.03766 
1 1.73673 -10.6374 8.78365 
1 3.49008 -10.6279 7.12161 
1 3.47371 -8.92219 8.97812 
1 1.76803 -8.92927 7.15467 
1 1.87719 -8.87311 10.8767 
1 7.11106 -10.5938 7.25605 
1 5.18824 -8.9863 10.5646 
1 5.1937 -10.7251 8.69061 
1 7.02641 -8.8417 8.95767 
1 5.12524 -8.90117 7.1981 
1 9.05921 -8.90982 7.34355 
2 -10.5881 -6.96623 7.0843 
1 -10.546 -5.36691 9.07184 
1 -8.83203 -7.08294 9.152 
1 -8.70119 -5.56465 7.09891 
1 -8.38033 -5.30616 10.7496 
1 -6.74151 -7.33571 10.6926 
1 -6.94451 -5.67427 8.83228 
1 -5.25198 -7.10193 8.71269 
1 -7.0375 -7.29188 7.07007 
1 -5.32603 -5.30053 7.03654 
1 -5.45548 -5.28986 10.994 
2 -3.7149 -7.03099 10.7456 
1 -1.87907 -5.37036 10.6122 
1 -1.73671 -7.06552 8.89936 
2 -3.63434 -5.28448 8.95087 
1 -3.46986 -7.03783 7.10188 
1 -1.79363 -5.31796 7.13232 
1 0.0896672 -7.16634 10.6436 
1 0.0196475 -7.2826 7.18432 
2 -0.00715231 -5.33969 8.94325 
1 3.62252 -7.12128 10.7012 
1 1.82473 -5.2759 10.5965 
1 1.83556 -7.13409 8.97972 
1 3.57008 -5.32947 8.77907 
1 3.56364 -7.19661 7.18632 
2 1.80906 -5.36062 7.01836 
1 7.14328 -7.20388 10.7581 
1 5.56089 -5.32024 10.7575 
1 5.32272 -7.0546 8.92692 
1 7.06789 -5.39977 8.91498 
1 7.11859 -7.17302 7.26287 
2 5.30491 -5.3192 7.20368 
1 8.74022 -5.34849 10.6422 
1 10.5293 -5.12953 8.97387 
1 10.7673 -6.98581 7.24399 
1 8.88365 -7.05189 8.89061 
1 8.93901 -5.42504 7.17711 
2 -12.079 -1.77718 7.32325 
1 -9.05397 -1.88581 10.6866 
1 -10.8651 -2.82687 9.26596 
2 -10.7262 -3.93355 7.07896 
1 -8.76493 -3.86155 8.85858 
2 -9.17487 -1.67805 7.49229 
1 -11.0461 -0.439342 9.53585 
1 -7.10038 -3.41858 10.878 
1 -5.4107 -1.72539 10.6114 
1 -7.1645 -1.71493 9.01342 
2 -5.52641 -3.61183 8.94431 
1 -7.18556 -3.49313 7.13719 
1 -5.57007 -1.55869 7.12329 
1 -3.68089 -3.40309 10.7968 
1 -1.89224 -1.65088 10.6827 
1 -3.61734 -1.67899 8.99097 
2 -1.92212 -3.41912 8.98426 
1 -3.72295 -3.4444 7.1946 
1 -1.89899 -1.67022 7.02392 
1 0.0268051 -3.47856 10.6051 
2 0.105457 0.0792863 7.21946 
2 -3.57472 0.041195 7.27501 
1 -1.86217 0.0787482 8.98155 
1 -0.0834272 -1.64857 8.8427 
2 0.0184007 -3.46456 7.15875 
1 1.80397 -1.87881 7.14412 
2 3.58582 -3.499 7.14659 
1 1.77812 -1.82004 10.5927 
1 1.85867 -3.46624 9.00612 
1 3.62351 -1.74547 8.91986 
1 3.65227 -3.57244 10.4508 
1 3.49504 -0.045337 10.7647 
1 1.74213 -0.0781375 8.92676 
1 7.13971 -0.116067 10.696 
1 5.37441 -1.69307 10.7724 
1 7.11715 -3.50064 7.13326 
1 7.2254 -1.82511 8.91036 
1 5.45557 -3.49169 9.00364 
1 7.27582 -3.45928 10.6906 
1 5.39846 -1.86238 7.13843 
1 5.37541 -0.157806 8.94334 
1 8.89844 -1.88122 7.09309 
1 8.80133 -3.58255 8.80202 
2 10.7564 -1.99586 8.73832 
1 9.09567 -1.88841 10.6866 
1 10.9419 -3.81161 7.04566 
1 12.1389 -0.0825395 9.06357 
2 9.09646 -0.0284352 9.06686 
2 12.6522 -1.65091 6.96975 
1 0.0199433 -8.44095 12.585 
1 -3.51185 -5.05548 12.4898 
1 -1.76097 -6.77015 12.5627 
2 1.94138 -6.84308 12.3328 
1 2.23632 -4.94687 14.103 
1 3.74283 -5.07666 12.3337 
1 0.253746 -6.44768 14.1362 
1 -3.28759e-05 -5.31566 12.0837 
2 0.0553951 0.127235 -14.2977 
2 1.8481 0.0192591 -12.3345 
2 1.74513 0.00905391 -8.95574 
2 7.02592 -0.0728152 -7.07664 
1 3.44924 0.0395893 -3.59054 
1 5.30824 -0.0310066 -5.31099 
1 10.5486 -0.00541169 -3.50343 
1 -14.3228 0.0350633 0.0156382 
2 -9.09098 0.168142 1.87695 
1 -9.17232 -0.131977 -1.63998 
1 -7.32747 0.0610812 -0.0949243 
1 -1.89391 0.0351177 1.76807 
1 -8.88379 0.120811 5.44137 
1 -3.65155 0.0240537 3.8254 
1 3.68015 0.0910683 3.6753 
2 14.2379 -0.0116254 2.89616 
1 -7.12638 0.0294056 10.6987 
1 -3.59364 0.0775435 10.7598 
1 3.5482 -0.0953386 7.00243 
1 7.24086 -0.0707022 7.09046 
2 10.7393 0.110483 7.03447 
1 -7.31547 1.81428 -12.1988 
1 -5.49006 3.37148 -12.466 
1 -5.41173 0.156913 -12.5172 
2 -1.89452 1.77748 -14.3771 
2 -3.49483 1.91335 -12.5012 
1 -1.86352 3.74677 -12.552 
2 -0.0382519 2.00913 -12.4811 
1 0.0417109 3.6749 -14.2792 
1 1.95734 5.16657 14.1116 
1 3.67175 3.33839 -14.4414 
1 3.61478 1.72167 -12.4695 
2 2.00055 3.60305 -12.467 
1 1.9034 1.81744 -14.3815 
1 3.72205 5.18205 12.4537 
1 5.31065 1.57734 -14.3937 
1 7.27714 1.6264 -12.6318 
1 5.52601 3.4541 -12.5795 
2 5.36369 -0.0785695 -12.5374 
1 -1.73376 7.11815 -12.5336 
1 -3.62062 5.31609 -12.5564 
1 -0.029639 5.27337 -12.4382 
1 1.77197 6.94366 -12.4604 
1 3.61286 5.33158 -12.5873 
1 -12.7227 1.79757 -7.03412 
1 -10.9707 2.17049 -9.04927 
1 -9.1213 1.94191 -10.612 
2 -9.05053 3.72267 -8.76252 
2 -9.12023 1.81594 -7.17078 
1 -10.8449 3.74208 -7.08787 
1 -10.7201 -0.0893591 -10.3557 
1 -9.09149 -0.0388131 -8.83332 
1 -11.0057 0.0288682 -7.33746 
1 -7.15108 3.74225 -10.7634 
2 -5.40794 1.70552 -10.5684 
2 -7.35948 1.87328 -9.02589 
1 -5.48703 3.60893 -8.93751 
1 -7.31479 3.65301 -7.08944 
2 -5.45527 1.64324 -7.15903 
1 -7.30304 0.0534739 -10.667 
1 -3.56923 3.67669 -10.6859 
1 -1.85596 1.79521 -10.6305 
1 -3.69766 1.77723 -8.91203 
2 -1.78129 3.6281 -9.0518 
2 -3.64439 3.57619 -7.2335 
1 -1.88858 1.73075 -7.126 
1 -0.222148 3.63271 -7.11031 
1 -0.0939702 1.80561 -8.83418 
1 0.0319096 3.64753 -10.7552 
1 -0.0913254 0.0412442 -7.009 
1 3.76054 3.57925 -10.7306 
1 1.75673 1.84798 -10.6312 
1 3.62128 1.81119 -9.07908 
2 1.76732 3.63249 -9.00212 
1 3.6011 3.53603 -7.19021 
2 1.74164 1.74438 -7.17971 
1 1.79328 7.07939 12.626 
1 3.64048 -0.149239 -10.7933 
1 3.47381 -0.0347573 -7.05111 
2 7.14548 3.56847 -10.7139 
1 5.36691 1.76978 -10.8575 
1 7.11016 1.79665 -8.85609 
1 5.30197 3.53895 -8.96767 
1 7.02426 3.42212 -7.16771 
1 5.13608 1.71997 -7.13846 
2 7.32363 0.00249513 -10.7641 
1 -3.43557 5.23035 12.802 
2 5.27282 0.00873532 -9.01973 
1 8.9387 1.99577 -10.6258 
2 10.6108 1.70954 -8.74104 
1 8.87331 3.60638 -8.76644 
1 8.82962 1.74907 -7.07372 
1 10.749 3.53247 -7.05443 
1 8.71802 0.00175307 -8.88858 
2 10.6337 -0.0837487 -7.09349 
1 10.2394 -0.14215 -10.7017 
2 12.4439 1.69989 -7.03783 
1 -10.6852 5.46294 -8.74073 
1 -10.9124 7.28811 -6.9536 
1 -8.97935 7.28274 -8.78002 
1 -9.04419 5.5454 -7.06516 
1 -9.14709 5.30037 -10.6341 
2 -5.43258 5.45343 -10.757 
1 -7.24815 7.17586 -10.5151 
1 -7.24758 5.36097 -8.8181 
1 -5.46026 7.11392 -8.81957 
2 -7.16647 7.32424 -7.10794 
1 -5.5175 5.44111 -7.19709 
2 -3.59309 7.28027 -10.8843 
1 -1.763 5.42137 -10.767 
1 -1.77767 7.33353 -8.938 
2 -3.66038 5.55108 -9.01339 
1 -3.73475 7.14558 -7.1586 
1 -1.82085 5.50283 -7.05353 
2 -0.0274104 5.50207 -8.98186 
1 -0.0332496 7.25336 -7.09883 
1 0.000806657 7.1054 -10.8737 
1 3.64768 7.20527 -10.7668 
1 1.92828 5.38517 -10.7793 
2 1.84379 7.20701 -8.92132 
1 3.60052 5.39837 -8.87442 
1 3.51253 7.10396 -7.08475 
1 1.70509 5.49413 -7.11792 
1 7.15461 7.16059 -10.5421 
1 5.46488 5.58357 -10.7727 
1 7.09863 5.42571 -8.84002 
1 5.27924 7.28157 -8.78213 
1 7.10754 7.05594 -7.13952 
1 5.388 5.31511 -7.19115 
1 8.98182 5.39347 -10.5484 
1 10.6111 5.27155 -8.66428 
1 8.86461 7.12663 -8.81841 
1 8.8894 5.3292 -7.08559 
2 10.6754 6.96905 -6.87596 
1 -8.89629 9.14208 -6.95961 
1 -5.50031 8.90237 -10.4935 
1 -5.40066 10.7806 -8.85028 
1 -7.32669 9.09232 -8.88298 
1 -5.46966 8.99017 -7.11901 
1 -7.18459 10.7762 -7.0016 
2 -1.48195 8.96308 -10.6695 
2 -1.94215 10.6987 -8.92479 
1 -3.59114 10.8841 -7.20957 
1 -3.6912 8.88189 -8.88888 
1 -1.90522 8.96066 -7.23114 
1 0.0182195 8.98244 -8.71507 
1 -1.83229 12.5085 -6.98218 
1 -0.144974 10.763 -7.04175 
1 -0.00468626 12.249 -8.84908 
1 1.67926 9.17892 -10.7494 
1 1.7242 10.665 -8.71499 
1 3.41204 10.7165 -7.03256 
1 3.6234 8.94032 -8.74401 
1 1.66663 9.01174 -6.9849 
2 1.62426 12.5194 -7.06029 
1 5.42045 9.11032 -10.4608 
1 5.29866 10.8308 -8.66458 
1 7.34867 10.7114 -7.24664 
1 7.13699 8.91084 -8.76015 
1 5.36339 9.01711 -7.05771 
1 8.97052 8.91337 -7.11091 
2 -14.2512 3.60257 -3.43244 
1 -14.4042 0.10287 -3.32596 
2 -12.4767 3.74402 -5.22977 
1 -12.7162 -0.0790333 -5.31717 
1 -12.6307 1.83706 -3.43899 
2 -10.9448 1.70909 -5.26446 
1 -10.8299 3.68947 -3.52737 
1 -8.97518 3.65725 -5.38267 
2 -9.20539 1.79197 -3.42661 
2 -9.03556 -0.141002 -5.52816 
1 -10.9968 -0.0909876 -3.62505 
1 -7.30181 1.77735 -5.40758 
2 -7.20189 3.66437 -3.59607 
1 -5.4105 3.59606 -5.39953 
1 -5.4043 1.87956 -3.6242 
2 -7.23413 0.00519908 -3.45356 
1 -5.53849 0.0786938 -5.39603 
1 -3.58886 1.78877 -5.33961 
1 -1.952 3.55431 -5.27025 
1 -3.6428 3.65855 -3.59547 
1 -1.97463 1.72755 -3.58553 
1 -0.102993 3.59321 -3.76705 
1 -1.95357 0.0218196 -5.39274 
1 -3.74868 0.00824952 -3.63153 
1 -0.129578 1.73695 -5.33296 
1 3.57201 1.86114 -5.41311 
2 1.78211 3.61669 -5.50658 
1 3.49346 3.67346 -3.57436 
2 1.70993 1.69428 -3.63498 
1 -1.64789 6.95587 12.5819 
1 7.00443 1.69895 -5.49068 
1 6.95383 3.57707 -3.65625 
1 5.24718 3.66471 -5.36047 
1 5.26788 1.78479 -3.54408 
1 7.0549 -0.103369 -3.5105 
1 0.101012 5.35801 12.4074 
1 10.6276 1.68679 -5.28713 
1 10.6547 3.50089 -3.61174 
2 8.82631 3.52428 -5.33293 
1 8.87577 1.81803 -3.65518 
1 12.3614 3.58323 -5.26973 
1 8.82443 0.107565 -5.33231 
1 5.43298 3.24521 12.4876 
1 12.4794 1.67273 -3.5191 
1 14.258 3.11969 -3.78593 
1 -12.6241 5.54857 -3.52235 
1 -10.7776 7.30204 -3.35774 
1 -10.8146 5.51483 -5.26367 
2 -8.98633 7.24508 -5.33478 
1 -9.06109 5.35528 -3.57139 
1 -7.16393 6.99632 -3.57166 
1 -7.23936 5.39913 -5.44654 
1 -5.36629 7.22483 -5.28412 
1 -5.32769 5.28973 -3.56721 
1 -1.88047 7.26748 -5.4846 
1 -3.5014 7.25361 -3.60723 
1 -3.60542 5.50098 -5.41608 
1 -1.93486 5.48335 -3.65514 
1 -0.111111 5.37261 -5.34635 
2 -0.105585 7.13963 -3.5896 
1 1.61702 7.09467 -5.38841 
2 3.39674 7.12479 -3.70026 
1 3.61402 5.30322 -5.45286 
1 1.72987 5.39745 -3.62792 
1 7.23584 7.1136 -3.58285 
1 7.03203 5.22399 -5.34567 
2 5.43549 7.1011 -5.41954 
1 5.36779 5.35851 -3.57735 
1 10.6018 7.04597 -3.67284 
1 10.7911 5.27038 -5.20378 
1 8.83733 7.07586 -5.33529 
1 8.89549 5.31994 -3.59242 
2 12.4776 5.29044 -3.44486 
1 -10.6516 9.04901 -5.21384 
1 -8.85203 10.8561 -5.09652 
1 -8.75426 8.85365 -3.46866 
1 -10.5779 10.6118 -3.42546 
1 -7.13624 10.6745 -3.47118 
1 -5.38364 10.8602 -5.49994 
1 -7.02274 8.97855 -5.2614 
1 -5.35673 8.91762 -3.45115 
1 -5.39598 12.4656 -3.62533 
1 -1.83024 10.6961 -5.24043 
1 -3.78933 10.7898 -3.56168 
2 -3.68387 9.05461 -5.44278 
1 -1.79732 8.98461 -3.54036 
1 -0.10674 8.98761 -5.35804 
1 -0.173429 10.7885 -3.60625 
1 -0.108783 12.4996 -5.29306 
1 -1.87706 12.3557 -3.50453 
1 -3.52473 12.5052 -5.24977 
2 1.6824 10.721 -5.2593 
1 3.5284 10.7162 -3.64678 
1 3.61227 8.92316 -5.39994 
1 1.7487 8.92074 -3.53247 
1 1.58666 12.4788 -3.504 
1 3.4992 12.5971 -5.36734 
1 7.21372 10.7912 -3.71877 
2 5.43445 10.992 -5.49554 
1 7.1441 9.0466 -5.44472 
2 5.42357 9.00244 -3.69412 
1 10.8972 8.90634 -5.07084 
1 9.06799 10.5386 -5.39072 
1 8.85475 9.03048 -3.55972 
1 -3.5953 14.1377 -3.54273 
1 -0.381658 14.3386 -3.47295 
2 1.86001 14.2609 -4.92201 
1 3.79922 14.4276 -3.4992 
1 5.52493 12.6778 -3.5156 
1 -14.305 3.62882 -0.0777793 
1 -14.2733 1.85411 -1.64302 
1 -14.3828 1.76081 1.74582 
2 -12.5799 3.47119 1.8032 
1 -12.4623 -0.0429197 -1.72273 
1 -12.6498 1.85665 -0.0218847 
2 -12.4065 0.171787 1.80376 
1 -12.5086 3.73982 -1.70419 
1 7.23104 1.54753 12.6356 
2 -10.7266 3.67421 0.0861785 
1 -10.9583 1.88682 -1.71759 
1 -10.7755 1.93067 1.80942 
1 -9.02758 3.60997 -1.77472 
1 -8.89878 3.53935 1.7608 
1 -9.04614 1.87569 -0.212977 
1 1.89788 1.80615 14.2208 
1 1.86328 3.52994 12.37 
1 -10.8441 0.0279176 -0.0579394 
1 -7.16152 3.56321 -0.0203009 
1 -7.24449 1.83291 -1.71897 
1 -7.16652 1.81612 1.78792 
1 -5.502 3.53217 -1.69272 
1 -5.52826 3.67873 1.76742 
1 -5.47182 1.76849 0.0662745 
1 -5.38437 0.103992 -1.74382 
2 -5.46718 0.017518 1.86684 
1 3.47819 1.61269 12.407 
2 -3.72812 3.52896 -0.00595469 
1 -3.7303 1.77088 -1.82895 
2 -1.80223 3.66664 -1.86473 
1 -3.55959 1.80258 1.80558 
1 -1.78825 3.6 1.70698 
1 -1.8116 1.83135 0.0345731 
1 -0.0810005 3.72714 -0.0220304 
1 -0.255767 1.85678 -1.98281 
1 0.102154 1.53311 12.5374 
1 -1.86052 0.111356 -1.77771 
1 0.0462916 1.88249 1.80521 
2 3.59934 3.6349 0.0363115 
1 3.45095 1.76502 -1.84032 
2 1.63586 3.60608 -1.90096 
1 3.68981 1.70804 1.74477 
1 1.86339 3.69003 1.84819 
2 1.67105 1.84687 -0.028188 
1 7.11777 3.6278 -0.160115 
1 7.05224 1.82948 -1.86191 
1 7.11539 2.03191 1.92267 
1 5.26166 3.75904 -1.80587 
1 5.42022 3.72817 1.87505 
2 5.32645 1.83643 0.0640348 
1 7.04636 0.0549151 0.0590153 
1 5.31239 0.010757 -1.81302 
1 8.81423 0.016259 -1.75548 
1 10.8218 3.62017 0.0466986 
1 10.6551 1.9515 1.77148 
2 10.5575 1.73413 -1.79989 
1 8.96275 3.56661 -1.82968 
1 8.82568 3.66622 1.64948 
1 8.82954 1.86786 -0.0645533 
1 12.4796 3.58207 -1.71914 
2 8.77035 0.146622 1.89132 
1 10.579 0.0872054 0.160226 
1 12.6187 3.70752 1.74685 
1 12.5178 1.80819 0.295481 
1 14.157 3.88543 -0.0863056 
2 14.3565 1.86677 -1.5902 
1 14.4487 0.343515 0.486292 
1 14.5835 2.27595 1.81568 
1 -12.7954 5.50958 0.0774228 
1 -12.5317 7.20631 -1.65028 
1 -12.5468 7.147 1.71941 
1 -10.6653 7.10894 0.0771987 
1 -10.8597 5.46716 -1.74384 
1 -10.8935 5.45739 1.85407 
1 -8.91744 7.06173 -1.65455 
2 -9.00823 7.13372 1.93098 
1 -8.97659 5.32566 0.164719 
1 -7.17875 7.22129 0.0209728 
1 -7.23443 5.31747 -1.68683 
2 -5.34699 7.06225 -1.92246 
1 -7.18592 5.47322 1.82302 
1 -5.39458 7.10647 1.83465 
1 -5.41561 5.45912 0.0351387 
1 -3.69641 7.1071 0.0134598 
1 -1.87725 7.21003 -1.83015 
1 -1.63267 7.1913 1.78713 
1 -3.57838 5.36945 -1.90208 
1 -3.71231 5.44279 1.79972 
2 -1.92345 5.48627 -0.0528687 
1 -0.107789 5.37025 -1.847 
1 -0.0573437 7.18643 -0.13696 
1 -0.0163933 5.43189 1.7093 
1 3.4739 7.19837 -0.0271131 
1 1.72467 7.19829 -1.68236 
2 1.71254 7.18622 1.69911 
1 3.47288 5.40459 -1.80097 
2 3.54337 5.4634 1.82067 
1 1.67833 5.46789 -0.0106451 
1 7.26693 6.99044 -0.0125329 
1 7.17339 5.35216 -1.88091 
2 5.297 7.15036 -1.68904 
1 7.22167 5.4057 1.75641 
1 5.40529 7.19383 1.66388 
1 5.39611 5.40477 -0.00556007 
1 10.4894 7.13086 -0.299894 
1 10.4897 5.37731 1.66041 
1 10.6398 5.2057 -1.86049 
1 8.90185 7.1718 -1.94333 
2 9.07362 7.33968 1.84592 
1 8.91689 5.32641 -0.0741746 
2 11.8809 7.47234 1.71359 
1 12.3244 7.09068 -1.85682 
1 12.3376 5.48523 0.0557018 
2 -8.82744 10.5832 -1.66547 
1 -8.88326 10.748 1.63367 
2 -10.753 8.97629 -1.53793 
1 -10.7658 9.00733 1.5322 
1 -8.86984 8.82818 0.0662527 
1 -7.0527 10.5619 -0.0234364 
1 -5.3043 10.489 1.9097 
1 -5.37386 10.6417 -1.69047 
1 -7.07282 8.86935 -1.7265 
1 -7.16808 8.94504 1.69093 
1 -5.25435 8.96033 0.0418424 
1 -7.10733 12.4869 -1.6858 
1 -6.90801 12.4361 1.92465 
1 -3.49352 10.6333 0.0711783 
2 -1.77834 10.709 1.71348 
1 -1.78783 10.7382 -1.7951 
1 -3.51339 8.93883 -1.725 
2 -3.60883 8.79743 1.87018 
1 -1.69862 8.81478 0.088392 
1 -3.6142 12.2788 -1.73651 
2 -0.0330743 9.10008 -1.77731 
1 -0.00268468 12.5397 -1.78169 
1 -0.0911695 10.8087 -0.0283396 
1 -1.80401 12.548 0.0306309 
1 -0.00761542 8.94045 1.75731 
1 3.48752 10.7387 0.0197254 
1 1.81736 10.6804 1.71117 
1 1.74649 10.7026 -1.82224 
1 3.47784 8.9586 -1.92701 
1 3.58097 8.91182 1.75583 
1 1.74316 8.99388 -0.025253 
2 1.77947 12.6074 0.0455568 
1 0.0742497 12.4593 1.76918 
1 7.1091 10.678 0.00871431 
1 5.35576 10.7273 1.68128 