ITEM: TIMESTEP
1240000
ITEM: NUMBER OF ATOMS
1289
ITEM: BOX BOUNDS pp pp pp
-100 100
-100 100
-100 100
ITEM: ATOMS type x y z 
1 -1.84591 -7.07082 -12.2225 
1 -3.72884 -5.34286 -12.4141 
1 -0.144855 -5.4155 -12.5193 
1 1.72638 -7.1047 -12.4216 
1 3.35679 -5.37942 -12.5389 
1 -7.18771 -1.66559 -12.5256 
2 -5.49195 -3.71164 -12.3545 
1 -5.327 -0.0691966 -12.7152 
2 -1.71452 -1.91615 -14.1588 
2 -3.66846 -2.00764 -12.5922 
1 -1.91634 -3.77347 -12.3123 
1 -0.126061 -1.91621 -12.3902 
1 -0.0424794 -3.71897 -14.2835 
2 0.0160379 -0.0276671 -14.4654 
2 3.37932 -3.15118 -14.2052 
1 1.63015 -3.58871 -12.4032 
1 3.47653 -1.77682 -12.302 
1 1.34432 -1.95114 -14.1773 
1 5.39981 -1.72781 -14.1565 
2 7.11971 -1.8266 -12.3649 
2 5.19208 -3.643 -12.4119 
1 -1.81945 -12.828 -6.86133 
1 1.98538 -12.5877 -6.91843 
1 -8.93493 -8.99896 -7.00569 
2 -5.46052 -10.6341 -8.61149 
1 -5.41117 -8.99319 -10.4773 
1 -7.12473 -8.88658 -8.72787 
1 -5.31567 -8.86434 -6.88476 
1 -7.16756 -10.7431 -6.9941 
1 -1.89917 -10.7506 -8.65008 
1 -1.79176 -8.94747 -10.5363 
1 -3.7701 -10.8437 -6.99352 
2 -3.55703 -8.95101 -8.74942 
1 -1.95479 -9.0408 -6.95636 
1 -0.136757 -10.6588 -10.2879 
1 0.0122303 -8.99842 -8.78089 
2 0.0181107 -10.7549 -6.98919 
2 1.95528 -10.8791 -8.78039 
1 1.92622 -8.88855 -10.6528 
1 3.66344 -10.6589 -7.00758 
2 3.53704 -8.89302 -8.85068 
1 1.85636 -8.87254 -7.04672 
1 5.18292 -10.7604 -8.79044 
1 6.96896 -8.87546 -8.90336 
1 5.2304 -8.83826 -6.99006 
1 7.02157 -10.8414 -7.13769 
1 5.03444 -9.06076 -10.6164 
1 8.76315 -8.92364 -7.14171 
1 -10.6475 -5.11072 -8.98628 
1 -8.73068 -5.15164 -10.7005 
1 -8.88952 -6.88492 -9.10345 
2 -8.93215 -5.21143 -7.0548 
2 -10.58 -7.1392 -7.10921 
1 -7.00361 -7.13806 -10.6359 
1 -5.49272 -5.32738 -10.7001 
1 -7.22192 -5.22233 -8.90682 
1 -5.45856 -7.10394 -8.89407 
2 -7.14006 -7.15849 -7.15503 
1 -5.42593 -5.29233 -7.12273 
2 -3.69907 -7.11992 -10.7266 
1 -1.62308 -5.37467 -10.5866 
1 -1.80155 -7.29144 -8.82044 
1 -3.59976 -5.43783 -8.89565 
1 -3.6775 -7.14835 -7.12301 
2 -1.96852 -5.30542 -7.03131 
2 -0.0135442 -7.20375 -7.0182 
2 0.0155074 -5.31735 -8.89432 
1 -0.000917194 -7.24274 -10.5406 
2 3.63624 -6.98503 -10.712 
1 1.68032 -5.32003 -10.7383 
1 1.80784 -7.08863 -8.88684 
1 3.62233 -5.2527 -8.83826 
1 3.64106 -7.01004 -7.06621 
2 1.90865 -5.2736 -7.19531 
1 6.86567 -7.22094 -10.7054 
1 5.39959 -5.42345 -10.7001 
1 5.31407 -7.05491 -8.89464 
1 6.89781 -5.33336 -8.96206 
1 6.84355 -7.09746 -7.13556 
1 5.21358 -5.13495 -7.10072 
1 8.74591 -5.39359 -10.749 
1 10.544 -5.05954 -8.91752 
1 10.6739 -6.84961 -7.06916 
2 8.70929 -6.90082 -8.67077 
1 8.64812 -5.23829 -7.11684 
1 -12.6182 -1.5818 -6.92221 
1 -10.8435 -1.7373 -8.98501 
1 -9.0503 -1.76371 -10.8737 
1 -10.9316 -3.53566 -7.15092 
1 -9.00372 -3.44137 -8.979 
1 -9.05685 -1.87238 -7.11623 
1 -8.93401 -0.211399 -8.88309 
1 -10.7721 -0.0927474 -7.13724 
1 -7.25933 -3.34921 -10.585 
1 -5.38489 -1.75136 -10.7083 
1 -7.09871 -1.70295 -8.8568 
1 -5.35613 -3.54797 -8.82521 
1 -7.20375 -3.47718 -7.1375 
1 -5.37131 -1.78726 -7.01935 
1 -7.2105 -0.11602 -10.805 
1 -7.08782 0.0170504 -7.06627 
1 -3.66263 -3.61146 -10.6971 
1 -1.96058 -1.80985 -10.6164 
1 -3.67685 -1.78472 -8.95909 
2 -1.85722 -3.51372 -8.9616 
1 -3.67671 -3.5071 -7.19447 
1 -1.85024 -1.69129 -7.07586 
1 -0.146046 -3.63054 -10.6933 
1 -0.0990858 -1.87784 -8.97535 
1 -0.0837137 0.0433851 -7.12873 
1 -0.142036 -3.38617 -7.03085 
1 3.52031 -3.63657 -10.6559 
1 1.6774 -1.8877 -10.7505 
1 1.75147 -3.5399 -9.01973 
2 3.54756 -1.82325 -8.87165 
1 3.53261 -3.39939 -7.21171 
1 1.59535 -1.83102 -7.11614 
1 7.05101 -3.51059 -10.6878 
1 5.22794 -1.79287 -10.6262 
1 7.18149 -1.74438 -8.86523 
1 5.43725 -3.49526 -8.97151 
1 6.9456 -3.50212 -6.94825 
1 5.33057 -1.75895 -7.11864 
1 9.08425 -1.69796 -10.5613 
1 10.6194 -3.66836 -6.93713 
1 8.69685 -3.62593 -8.89469 
2 8.85309 -1.82634 -7.08221 
2 10.7354 -2.12559 -8.9128 
1 12.4813 -1.9093 -7.10094 
1 -5.43038 -12.6545 -3.34842 
1 -1.88988 -14.4651 -5.04988 
1 -1.86355 -12.4918 -3.51151 
2 -0.0721676 -14.2336 -3.52278 
1 -3.70616 -12.6444 -5.22179 
1 0.024083 -12.7366 -5.40617 
2 2.08386 -12.6779 -3.91321 
1 -10.842 -8.80552 -5.13872 
1 -9.11797 -10.7047 -5.2675 
2 -8.91728 -8.85893 -3.49831 
1 -7.30719 -10.7933 -3.50904 
1 -5.43982 -10.8609 -5.20215 
1 -7.15731 -9.01507 -5.21409 
1 -5.48098 -8.88969 -3.59475 
2 -1.9466 -10.8759 -5.38462 
1 -3.70544 -10.8459 -3.50821 
1 -3.69251 -8.9487 -5.27264 
2 -1.88795 -8.93881 -3.48966 
2 0.00469845 -10.8688 -3.7234 
1 3.93785 -12.4354 -5.39484 
1 -0.025325 -8.90999 -5.33238 
1 1.91289 -10.5875 -5.5076 
1 3.5688 -10.7158 -3.67117 
1 3.56028 -8.81605 -5.2778 
1 1.67591 -8.91395 -3.58089 
1 5.38622 -12.5635 -3.52434 
2 7.15869 -10.811 -3.5412 
1 5.44432 -10.6367 -5.31152 
1 7.0167 -8.80464 -5.43999 
2 5.28658 -8.93605 -3.44264 
1 8.7736 -10.5898 -5.29772 
2 8.84886 -8.74715 -3.45601 
1 10.4732 -8.75831 -5.36585 
1 -12.8 -5.47792 -3.59484 
1 -10.9757 -7.05188 -3.56249 
1 -11.0226 -5.4131 -5.42914 
2 -9.03789 -7.04532 -5.21126 
1 -9.03015 -5.34515 -3.57728 
1 -7.20072 -7.13687 -3.49274 
1 -7.1283 -5.1377 -5.18323 
1 -5.46065 -7.03777 -5.28431 
1 -5.35864 -5.31478 -3.47044 
1 -1.8867 -7.21824 -5.34375 
1 -3.57828 -7.09517 -3.52061 
1 -3.73608 -5.36013 -5.3303 
1 -1.83198 -5.39885 -3.53825 
2 0.0215743 -5.22441 -5.32834 
1 -0.115051 -7.12694 -3.64181 
2 1.82775 -7.04211 -5.28053 
1 3.50572 -6.99989 -3.44539 
1 3.5678 -5.21473 -5.24827 
1 1.65072 -5.1131 -3.5113 
1 7.13629 -7.16246 -3.38633 
1 5.20351 -7.01932 -5.23681 
1 6.96652 -5.34323 -5.25547 
1 5.36179 -5.38767 -3.51868 
1 10.7403 -7.09128 -3.56827 
1 10.7721 -5.26453 -5.27405 
2 8.68637 -6.995 -5.47622 
2 8.94405 -5.3275 -3.54168 
1 12.5553 -5.19014 -3.4584 
1 -14.3786 -3.74108 -3.44108 
1 -12.8228 -3.61082 -5.40415 
2 -12.8163 -1.4788 -3.54683 
1 -10.9113 -1.70287 -5.26676 
2 -10.9454 -3.63303 -3.58259 
1 -9.24026 -3.61808 -5.25103 
2 -9.08728 -1.75502 -3.45918 
2 -9.03533 -0.071183 -5.42126 
1 -10.8291 0.0743077 -3.52979 
2 -7.18361 -1.94106 -5.22898 
1 -7.2633 -3.58572 -3.42209 
1 -5.17214 -3.53637 -5.35905 
1 -5.39692 -1.76884 -3.47921 
1 -5.29688 0.0792524 -5.26773 
1 -3.71343 -1.75419 -5.27273 
1 -2.02358 -3.4974 -5.21754 
1 -3.73255 -3.60764 -3.44546 
1 -1.92581 -1.70857 -3.56062 
1 -0.167138 -1.6657 -5.29853 
1 -0.117987 -3.45866 -3.58553 
1 -1.92786 0.0669513 -5.35261 
1 -0.114978 -0.0201604 -3.55804 
1 -3.71722 0.0584785 -3.46268 
1 1.82471 -3.49506 -5.40835 
1 3.45433 -1.60913 -5.33978 
1 3.6119 -3.58098 -3.50209 
2 1.68916 -1.7163 -3.56359 
1 7.14058 -1.81138 -5.26239 
1 6.9716 -3.5567 -3.5331 
1 5.16413 -3.40841 -5.28693 
1 5.28634 -1.78925 -3.55574 
1 10.7045 -1.9578 -5.27709 
1 10.6311 -3.59149 -3.47217 
1 8.79582 -3.63822 -5.27678 
1 8.89656 -1.88379 -3.65174 
1 12.2367 -1.75821 -3.6058 
2 12.6064 -3.42429 -5.18453 
1 10.5143 -0.0458195 -3.6557 
1 8.86183 0.0315397 -5.41347 
2 12.5733 -0.0469603 -5.39762 
2 14.2359 -2.99 -3.1788 
2 14.1872 -0.121653 -3.44217 
1 -5.24791 -12.7321 -0.0443097 
2 -7.17896 -12.4263 1.45759 
1 -3.36739 -14.4301 0.195242 
1 -2.0295 -14.3062 -1.89868 
1 -1.46882 -14.4362 1.64225 
2 -0.0102324 -12.4292 -1.81482 
1 0.0269604 -14.3093 -0.29946 
1 2.06967 -14.3382 -2.0058 
1 3.38234 -14.2349 0.00649035 
2 1.35473 -14.2096 1.83915 
1 5.23603 -14.0774 -1.59086 
2 7.14312 -12.4628 -1.52123 
1 5.15344 -12.4166 0.143525 
1 -10.8774 -10.2984 0.0286975 
1 -10.96 -8.78967 -1.82687 
1 -9.01435 -10.6349 -1.65168 
2 -8.99123 -10.7002 1.73563 
1 -8.99118 -8.73732 0.0147801 
2 -10.8125 -8.81104 1.94694 
2 -7.27507 -12.4027 -1.43529 
1 -7.1853 -10.5491 -0.0610937 
2 -5.43868 -10.6265 -1.75362 
2 -5.34138 -10.7021 1.52241 
1 -7.099 -8.94909 -1.82315 
1 -7.17341 -8.80882 1.60077 
1 -5.30756 -8.64036 0.0200469 
1 -3.60146 -12.5534 -1.78114 
1 -1.77672 -12.5103 0.0190014 
1 -3.4844 -12.4266 1.65834 
1 -3.48778 -10.6137 -0.100051 
1 -1.93598 -10.7448 -1.78355 
1 -1.75778 -10.6674 1.64789 
1 -3.58796 -8.83301 -1.76918 
1 -3.50597 -8.77347 1.56216 
1 -1.79196 -8.89409 -0.141638 
1 -0.0836124 -12.2699 1.75412 
1 3.40599 -12.5105 1.78118 
1 -0.108913 -8.86834 1.79942 
1 -0.111897 -10.5598 -0.166499 
2 1.68339 -12.4117 0.0153058 
1 -0.0925476 -8.92152 -1.91185 
1 3.51854 -12.3127 -1.82891 
1 3.42712 -10.6525 -0.0578636 
1 1.74606 -10.6225 -1.87119 
1 1.48895 -10.6328 1.75136 
1 3.44698 -8.84453 -1.70235 
1 3.48516 -9.01424 1.70569 
1 1.65509 -8.97624 0.0524229 
1 7.22821 -12.3392 1.69784 
1 7.06818 -10.6616 -0.00699826 
1 5.32568 -10.6853 -1.69855 
1 5.36392 -10.8561 1.76232 
1 7.04308 -8.88248 -1.71899 
2 7.18638 -9.00742 1.73772 
1 5.31548 -9.10798 0.0103059 
1 9.00695 -12.0666 -0.064517 
1 9.16143 -10.678 -2.04923 
1 10.7602 -8.87547 -1.93384 
1 10.7742 -9.02568 1.67861 
2 9.05946 -9.15154 -0.0423333 
1 9.06256 -10.7525 1.99234 
1 -12.584 -6.9525 -1.814 
1 -12.5476 -5.18185 -0.0131727 
2 -10.9626 -7.13846 0.0237663 
1 -10.8695 -5.38827 -1.83862 
1 -10.9644 -5.45303 1.86562 
1 -9.11797 -7.16209 -1.84633 
1 -9.19214 -7.07199 1.81828 
1 -9.17025 -5.40404 -0.0777378 
1 -7.32115 -7.15516 -0.0966405 
1 -7.26372 -5.52085 -1.91375 
1 -5.25394 -7.06277 -1.86352 
2 -7.27045 -5.46671 1.63254 
1 -5.2774 -7.01453 1.86642 
1 -5.42153 -5.41006 -0.115644 
1 -3.64612 -7.04617 -0.0776425 
1 -1.77236 -7.08009 -1.75685 
1 -1.89473 -7.21017 1.7876 
1 -3.61477 -5.33235 -1.82895 
1 -3.71468 -5.25935 1.77348 
2 -1.8818 -5.39228 -0.00151753 
1 -0.0812075 -5.29258 -1.76226 
1 -0.0504788 -7.23191 -0.0551259 
1 0.0448818 -5.33051 1.73088 
1 3.46495 -7.15624 0.0724589 
2 1.61415 -7.17596 -1.84296 
1 1.70904 -7.16783 1.80818 
2 3.59251 -5.30302 -1.66562 
1 3.45625 -5.40451 1.71999 
1 1.61584 -5.35775 -0.0242258 
1 7.17 -7.13192 0.0815057 
1 5.4244 -7.09739 -1.61546 
1 7.12801 -5.23588 -1.67883 
1 5.2983 -7.15883 1.68785 
2 7.26842 -5.38922 1.83768 
1 5.43633 -5.29266 0.0545298 
1 10.6592 -7.18081 -0.129595 
1 10.6764 -5.49681 1.68092 
1 10.7406 -5.28437 -1.67303 
1 8.92276 -7.08708 -1.67771 
1 8.98585 -7.26738 1.7485 
1 8.91814 -5.32037 -0.048096 
1 12.5955 -7.0272 -1.72921 
1 12.4328 -7.18533 1.47582 
2 12.5821 -5.24535 -0.208941 
1 -14.3453 -3.57284 -0.0585895 
2 -14.3433 -1.76556 -1.61651 
1 -14.2533 -1.71075 1.69086 
1 -12.5912 -3.40208 -1.76829 
1 -14.2729 0.145432 0.0911255 
2 -12.4507 -0.0230207 1.73416 
1 -12.4939 -1.67664 -0.109323 
1 -12.553 -3.42842 1.67656 
1 -10.8076 -3.50569 -0.200647 
1 -10.825 -1.7283 -1.77508 
1 -10.7539 -1.71854 1.62346 
1 -8.96331 -3.71305 -1.71942 
2 -9.20811 -3.72835 1.70558 
1 -8.93833 -1.73783 0.00375093 
2 -9.01977 0.133801 1.76811 
1 -9.02894 0.0665229 -1.74228 
1 -7.26386 -3.70543 -0.134186 
1 -7.20509 -1.74574 -1.72794 
1 -7.32088 -1.68851 1.84109 
1 -5.47107 -3.61493 -1.81612 
2 -5.58943 -3.54543 1.77345 
2 -5.47291 -1.76724 -0.124084 
1 -7.13574 0.0362019 -0.0265003 
1 -5.38454 0.0857683 -1.8609 
1 -3.57188 -3.57063 0.00656406 
1 -3.5609 -1.70217 -1.74051 
2 -1.72505 -3.4902 -1.79595 
2 -3.59972 -1.76304 1.81257 
1 -1.72698 -3.45939 1.84586 
1 -1.82375 -1.76391 0.0971256 
1 -0.200311 -1.69689 1.70802 
1 -3.65272 0.065232 0.00818354 
1 -0.112706 -0.00926376 -0.0384815 
1 -1.88342 -0.0264616 -1.74995 
1 -1.89692 0.0227618 1.82102 
1 -0.124733 -1.66479 -1.64131 
1 -0.142667 -3.60571 0.0524429 
2 3.4667 -3.48214 0.242537 
2 1.67649 -3.44965 -1.63951 
1 3.53559 -1.80123 -1.71542 
1 1.61825 -3.60065 1.72897 
1 3.52925 -1.68345 1.86769 
1 1.61701 -1.75377 0.0601223 
1 1.78424 -0.0208797 -1.77969 
1 5.40629 0.00641199 -1.78379 
1 7.1181 -3.66081 0.0882 
1 7.10165 -1.76565 -1.68691 
1 7.14547 -1.87513 1.74967 
1 5.3596 -3.48998 -1.8265 
1 5.343 -3.58125 1.86928 
2 5.40002 -1.8747 0.078747 
1 7.12887 0.178458 -0.00848527 
1 5.46397 0.00962504 1.86227 
2 12.3593 -0.0722964 -1.80706 
1 10.7728 -3.56584 0.0624769 
1 10.743 -1.84417 1.77083 
1 10.5237 -1.85554 -1.8115 
1 8.87158 -3.60751 -1.75316 
1 8.99478 -3.60946 1.77619 
2 8.90853 -1.84711 0.114669 
1 12.3397 -3.38446 -1.88514 
1 10.6766 0.0262919 -0.0535222 
1 8.90053 0.0579961 -1.79942 
1 12.5105 -0.081192 1.63837 
1 12.4936 -1.72033 0.0382213 
2 12.5191 -3.58734 1.73812 
2 14.2352 -3.40821 -0.389703 
1 14.7477 -1.21643 -1.33551 
1 14.4388 -1.92238 1.68071 
2 -5.18656 -12.5609 3.24787 
2 -3.01188 -14.0709 3.54217 
1 -0.131809 -14.057 3.72252 
2 -3.44206 -12.3708 5.21246 
1 3.24905 -14.2142 3.67658 
1 -10.7909 -10.7182 3.52481 
1 -10.7832 -8.99449 5.43064 
2 -8.80109 -8.89781 3.67281 
2 -8.83385 -10.7009 5.31197 
1 -7.14953 -10.9179 3.44531 
1 -5.37089 -10.8327 5.20691 
1 -6.98247 -8.89241 5.37798 
2 -5.41793 -8.94193 3.41428 
1 -1.73973 -12.2616 3.3801 
1 -1.79886 -10.5882 5.36922 
1 -3.48241 -10.5722 3.36768 
2 -3.63719 -8.94807 5.32153 
1 -1.89237 -8.85666 3.48591 
1 -0.120621 -8.79046 5.38259 
2 -0.131533 -12.3103 5.34277 
1 3.33059 -12.5023 5.40126 
1 1.53904 -12.3722 3.48654 
1 -0.0676932 -10.4659 3.5266 
1 1.6325 -10.6362 5.32805 
2 3.325 -10.7168 3.42051 
1 3.47148 -8.98631 5.20489 
1 1.67764 -8.86748 3.55313 
1 5.15551 -12.4653 3.56664 
1 7.15095 -10.8905 3.64594 
1 5.23454 -10.8955 5.4175 
2 7.00269 -8.89603 5.37422 
2 5.27268 -9.11568 3.42159 
1 8.80913 -10.7595 5.44049 
2 8.97162 -8.95219 3.64278 
2 10.5755 -8.85619 5.50006 
1 -12.6872 -5.19761 3.55949 
1 -10.9302 -7.17388 3.75496 
1 -10.7781 -5.43439 5.29888 
1 -8.92868 -7.08823 5.33589 
1 -9.09207 -5.38156 3.64942 
1 -7.25256 -6.94701 3.55908 
1 -7.15264 -5.40753 5.41816 
1 -5.29668 -7.04209 5.33992 
2 -5.33058 -5.20018 3.63299 
1 -1.88686 -7.1264 5.37538 
1 -3.54249 -7.17769 3.53385 
1 -3.65155 -5.20577 5.42934 
2 -1.8721 -5.33359 3.47677 
1 -0.0504444 -7.14674 3.47794 
2 0.100188 -5.46155 5.37202 
1 1.84272 -7.15626 5.26126 
1 3.51522 -7.08325 3.48595 
1 3.66668 -5.49602 5.3868 
1 1.74349 -5.37319 3.47538 
1 7.11571 -7.20793 3.47592 
1 5.16486 -7.19932 5.32831 
2 6.95744 -5.47069 5.20014 
2 5.1957 -5.36409 3.50586 
1 10.7846 -7.2379 3.47433 
1 10.8804 -5.53508 5.18305 
1 8.89757 -7.05645 5.36039 
1 9.05697 -5.45372 3.48959 
2 12.6204 -5.52195 3.33397 
1 -14.064 -3.10705 3.61559 
1 -14.1768 -0.044493 3.46081 
1 -12.55 -3.44873 5.4254 
1 -12.2512 -1.80791 3.51773 
1 -10.7324 -1.90085 5.41534 
1 -10.8776 -3.70726 3.48908 
1 -9.06285 -3.58994 5.42261 
2 -9.0935 -1.81498 3.54193 
1 -9.06027 0.15829 5.27557 
1 -5.48031 0.054916 5.35101 
1 -7.41352 -1.75588 5.43303 
2 -7.30724 -3.51553 3.60714 
1 -5.52625 -3.45195 5.50205 
1 -5.53878 -1.75454 3.63689 
1 -7.27727 0.0996431 3.70637 
2 -3.73221 -1.74562 5.35594 
2 -1.76663 -3.5256 5.39026 
1 -3.65675 -3.56353 3.58247 
1 -1.74029 -1.75243 3.59915 
1 0.0744483 -3.49607 3.56963 
1 -0.0118566 -0.0494939 3.59161 
1 0.0513663 -1.73497 5.31658 
1 -3.68087 -0.079602 3.61912 
1 1.96658 -3.68873 5.26091 
1 3.7354 -1.66792 5.11871 
1 3.433 -3.49264 3.53835 
1 1.83947 -1.77793 3.59677 
1 3.69782 0.0713162 3.58021 
1 7.15581 -1.75548 5.25526 
1 7.21132 -3.55789 3.44581 
1 5.39362 -3.48766 5.22246 
1 5.44972 -1.75636 3.43924 
1 5.47831 0.00908194 5.29595 
2 10.766 -1.8924 5.3658 
1 10.6402 -3.69093 3.53578 
2 8.84858 -3.71828 5.29792 
1 8.92357 -1.90187 3.49677 
2 12.4823 -1.79857 3.52935 
1 8.90019 -0.013505 5.38361 
1 12.7303 -3.64098 5.31994 
1 14.4825 -3.4498 3.60511 
1 14.2914 -1.60271 5.36131 
2 14.2222 -0.117511 3.34786 
1 -8.91192 -8.88063 6.91262 
1 -5.43338 -8.92247 10.69 
1 -5.26087 -10.6011 8.81853 
1 -7.03786 -10.8887 6.85451 
2 -7.03825 -8.94685 8.62214 
1 -5.31749 -8.8687 7.04313 
1 -1.77564 -12.4065 7.1824 
2 -1.74353 -8.87621 10.7542 
1 -1.95808 -10.6467 8.93345 
1 -3.66374 -10.8133 7.14336 
1 -3.59412 -8.89299 8.89938 
1 -1.85991 -8.98695 7.16257 
1 0.0125517 -8.98004 8.92498 
1 -0.0712359 -10.5829 7.092 
1 1.50807 -12.5485 7.05753 
1 1.55379 -10.8039 8.83183 
1 3.4582 -10.7523 7.00263 
1 3.47733 -9.17442 8.93691 
1 1.70937 -8.88858 7.17146 
1 1.71401 -9.02312 10.6737 
1 7.1645 -10.6257 7.23649 
1 5.2791 -9.10743 10.5635 
1 5.2621 -10.8298 8.72624 
1 7.07987 -8.99363 9.02041 
1 5.23698 -9.12861 7.10975 
1 8.81445 -8.84399 7.2118 
1 -10.5956 -5.3932 8.95063 
2 -10.5642 -7.00532 7.11527 
1 -8.93239 -7.22507 8.9216 
1 -8.895 -5.34756 7.14402 
1 -8.75401 -5.40504 10.6556 
1 -7.02638 -7.1535 10.4598 
1 -7.04173 -5.35956 8.83563 
1 -5.33781 -7.22115 8.77303 
1 -7.12492 -7.07588 7.05349 
1 -5.39349 -5.38761 7.04212 
1 -5.35513 -5.40388 10.6837 
2 -3.72722 -7.1487 10.6879 
1 -1.79439 -5.4737 10.6006 
1 -1.84768 -7.18248 8.7767 
2 -3.73152 -5.28898 8.8062 
1 -3.55481 -7.12338 7.08956 
1 -1.76886 -5.38344 7.14281 
1 0.0707071 -7.19277 10.6735 
2 0.115147 -5.46402 8.94235 
1 0.0507213 -7.21951 7.12683 
1 3.56999 -7.18062 10.7844 
1 1.88316 -5.40102 10.6469 
1 1.87466 -7.24607 9.02897 
1 3.63335 -5.41415 8.9337 
1 3.64008 -7.30979 7.1951 
2 1.96423 -5.54547 7.10855 
1 7.25992 -7.136 10.7035 
1 5.37441 -5.50727 10.6406 
1 5.33718 -7.42747 8.87964 
1 7.25958 -5.46875 8.85572 
1 7.0748 -7.30695 7.30071 
2 5.42909 -5.4796 7.24053 
1 8.96944 -5.40443 10.667 
1 10.7164 -5.31476 8.87022 
1 10.7003 -7.0716 7.14734 
1 8.93899 -7.22418 8.91814 
1 8.88838 -5.53809 7.08572 
2 -11.9964 -1.80132 7.42671 
1 -8.95529 -1.70436 10.6344 
1 -11.0012 -2.87819 9.48381 
2 -10.7855 -3.8144 7.22645 
1 -8.69607 -3.65538 8.92318 
2 -9.02357 -1.65498 7.38824 
1 -11.077 -0.438235 9.506 
1 -7.0628 -3.572 10.8147 
1 -5.41059 -1.63887 10.6465 
1 -7.17045 -1.65604 9.12515 
2 -5.53087 -3.62772 8.93371 
1 -7.17291 -3.57483 7.07353 
1 -5.45847 -1.69757 7.2423 
1 -7.18982 0.0858361 7.14929 
1 -3.63559 -3.66198 10.5531 
1 -1.83622 -1.7118 10.5609 
1 -3.70488 -1.75556 8.8981 
2 -1.72089 -3.46808 8.90394 
1 -3.6112 -3.35168 7.11132 
1 -1.74037 -1.76209 7.21756 
1 -1.79759 -0.0450855 8.97453 
2 0.150407 -3.50252 7.0445 
2 -3.6657 -0.0476437 7.1816 
1 0.238032 -3.50454 10.5624 
1 0.199638 -1.7705 8.86027 
1 2.03134 -1.69555 6.96456 
2 3.6472 -3.53484 7.07056 
1 1.95567 -1.72762 10.4906 
1 1.9127 -3.51957 8.79153 
1 3.78586 -1.72837 8.83399 
1 3.7378 -3.59432 10.504 
1 1.87957 -0.0972455 8.80441 
1 3.69955 -0.132841 7.01279 
1 7.46224 -0.24487 10.702 
1 7.15894 -3.70085 7.18402 
1 5.46502 -3.42709 8.92659 
1 5.40262 -1.82789 7.03817 
1 7.23671 -1.89136 8.8937 
1 7.19016 -3.70916 10.5339 
1 5.56063 -1.83107 10.7207 
1 5.57666 -0.224162 8.81038 
2 10.8389 -2.11738 8.66668 
1 9.13797 -2.28571 10.7466 
1 8.76865 -1.73565 7.10733 
1 8.9393 -3.69951 8.74081 
1 10.886 -3.97797 7.05932 
1 12.3835 0.0623545 8.66278 
2 12.7265 -1.85042 7.08283 
1 0.0888248 -8.73219 12.5107 
1 0.152486 -5.23761 12.0451 
1 -3.57943 -5.23752 12.3067 
1 -1.77075 -7.09198 12.3972 
1 3.59118 -5.21121 12.3671 
1 1.99378 -5.15464 14.1565 
2 1.88567 -6.89674 12.5853 
1 -0.212306 -6.32603 14.0785 
1 -7.13369 -1.72679 12.3542 
1 -5.35123 -3.5133 12.3063 
1 -1.68343 -0.0459726 12.2437 
1 -3.37195 -1.75004 12.3051 
1 -1.7295 -3.57414 12.0867 
1 -1.65409 -1.85243 14.0408 
2 -0.0146704 -3.75769 13.7985 
1 0.118293 -1.71239 12.1954 
1 1.78713 -1.87776 13.9546 
1 1.87503 -3.4718 12.2356 
1 3.69892 -1.88365 12.3126 
1 0.0410627 0.00469044 14.0159 
1 5.51448 -0.162193 12.4846 
1 7.26191 -1.80141 12.5416 
2 5.49591 -3.64942 12.2433 
1 -7.06326 1.76153 -12.4998 
1 -5.35425 3.46931 -12.6145 
2 -1.66259 1.76603 -14.3665 
2 -3.58918 1.85171 -12.6956 
1 -1.79938 3.67736 -12.6687 
1 0.268541 3.71245 -14.3071 
2 0.0036139 1.90755 -12.318 
2 -1.85172 -0.00983284 -12.4921 
1 -3.52348 -0.0700942 -14.3903 
1 3.52102 3.66792 -14.2365 
1 3.47379 1.82208 -12.4717 
2 1.86593 3.6981 -12.4126 
1 1.92978 1.76229 -14.3075 
2 3.33483 -0.217597 -14.3116 
2 1.68573 -0.0840586 -12.4348 
1 4.95983 1.83019 -14.2627 
1 6.98487 1.61392 -12.6088 
1 5.1897 3.58065 -12.4069 
2 5.13973 -0.0874507 -12.3386 
1 -1.61929 7.09841 -12.4315 
1 -3.61508 5.16351 -12.5362 
1 0.0429385 5.39269 -12.3895 
1 1.82962 7.01254 -12.3926 
1 3.66131 5.54041 -12.6008 
1 -12.4242 1.83937 -7.15047 
1 -11.4571 3.02235 -9.1899 
1 -9.1311 1.57722 -10.6315 
2 -8.95651 3.64156 -8.91175 
2 -9.14302 1.77236 -7.30631 
1 -10.7828 3.88105 -7.05666 
1 -11.216 0.601502 -9.37992 
1 -7.154 3.52365 -10.7454 
2 -5.38101 1.63019 -10.7214 
2 -7.19115 1.62764 -9.0181 
1 -5.47746 3.64485 -9.03443 
1 -7.17682 3.60084 -7.19563 
2 -5.33633 1.81905 -7.16116 
1 -5.3824 -0.0637249 -8.89625 
1 -3.6511 3.47342 -10.6859 
1 -1.96877 1.80493 -10.6317 
1 -3.5901 1.70131 -8.95334 
2 -1.81161 3.43344 -8.88547 
2 -3.63092 3.71688 -7.08532 
1 -1.85319 1.78619 -7.04291 
1 -0.00132497 1.78014 -8.97335 
1 -0.230482 3.55504 -7.01493 
1 -0.0786411 3.78186 -10.7189 
1 -3.56242 -0.0095227 -7.21129 
1 -0.187821 -0.135284 -10.7596 
1 -3.64699 0.011164 -10.8338 
1 -1.69941 -0.00755746 -8.9722 
1 3.5526 3.62909 -10.6266 
1 1.7991 1.82731 -10.644 
1 3.59552 1.77007 -8.90013 
2 1.72613 3.55998 -8.84349 
1 3.56781 3.61475 -7.12851 
2 1.73166 1.74972 -7.0648 
1 3.42602 0.0253677 -10.6756 
1 3.57489 0.0804793 -7.08826 
2 1.64414 -0.0635211 -9.00291 
2 6.96906 3.47974 -10.6906 
1 5.14449 1.86509 -10.709 
1 7.16508 1.89051 -8.78835 
1 5.31633 3.58458 -8.93094 
1 6.97644 3.50112 -6.90254 
1 5.17847 1.81282 -7.12034 
2 7.32182 0.101994 -10.7661 
2 7.16602 0.115421 -7.11801 
2 5.35561 0.0551345 -9.05835 
1 8.99797 1.91862 -10.8381 
2 10.7045 1.93133 -8.74372 
1 8.78073 3.50477 -8.78449 
1 9.0135 1.8182 -7.00561 
1 10.7917 3.86646 -6.96744 
2 12.4718 1.94774 -6.94462 
2 10.7621 -0.0617711 -7.19065 
1 8.8449 0.054208 -8.89954 
1 10.7727 0.0346783 -10.2878 
1 -10.7551 5.46786 -8.76864 
1 -10.6487 7.17479 -7.02717 
1 -9.01511 7.22607 -8.95459 
1 -8.84939 5.45058 -7.0617 
1 -8.90464 5.2898 -10.6903 
2 -5.54239 5.42443 -10.8649 
1 -7.29976 7.21798 -10.6096 
1 -7.10975 5.40748 -8.87855 
1 -5.46689 7.15205 -8.89348 
2 -7.21394 7.2564 -7.0485 
1 -5.39969 5.5524 -7.07149 
2 -3.5573 7.25711 -10.788 
1 -1.8139 5.40195 -10.7093 
1 -1.82029 7.13512 -8.91022 
2 -3.62209 5.41356 -9.02901 
1 -3.71792 7.23317 -7.03879 
1 -1.88337 5.50617 -6.98005 
1 0.057005 7.09873 -10.7446 
2 -0.138938 5.4101 -8.77133 
1 -0.0733137 7.1462 -7.06433 
1 3.62243 7.0487 -10.7045 
1 1.91504 5.36394 -10.6012 
2 1.80402 7.13061 -8.87967 
1 3.58943 5.41127 -8.81954 
1 3.46529 7.05446 -7.01324 
1 1.72235 5.36998 -6.9244 
1 7.05676 7.07985 -10.5868 
1 5.36744 5.3947 -10.7459 
1 7.06731 5.21567 -8.79487 
1 5.28824 7.01595 -8.89316 
1 7.24577 7.23649 -7.06259 
1 5.34626 5.32132 -7.10392 
1 8.64497 5.24625 -10.669 
1 10.559 5.16405 -8.98489 
1 8.87709 7.0041 -8.9563 
1 8.69052 5.34267 -7.09244 
2 10.611 6.75679 -7.13104 
1 -8.95478 9.07435 -6.96724 
1 -5.31889 8.97957 -10.5228 
1 -5.39506 10.5801 -8.86843 
1 -7.20576 9.04161 -8.91367 
1 -5.41023 8.95791 -7.18098 
1 -7.26927 10.87 -7.07382 
2 -1.57295 8.99741 -10.6538 
2 -2.07493 10.6132 -8.80036 
1 -3.70514 10.773 -7.13032 
1 -3.70583 8.86556 -8.83555 
1 -1.88639 8.89406 -7.21501 
1 -0.0315505 8.97981 -8.77883 
1 -0.179051 10.8883 -7.19139 
1 -1.65805 12.6949 -7.28371 
1 -0.179383 12.095 -9.26533 
1 1.80889 8.89996 -10.6437 
1 1.61453 10.6569 -8.99294 
1 3.35923 10.7211 -7.16599 
1 3.54206 9.08778 -8.96063 
1 1.72146 8.92678 -7.19403 
2 1.57534 12.5769 -7.20428 
1 5.26421 8.8251 -10.5222 
1 5.45725 10.8481 -8.63248 
1 7.48255 10.6396 -7.09055 
1 7.07862 8.94885 -8.83794 
1 5.373 8.96893 -7.21425 
1 9.07871 8.72986 -7.19167 
2 -13.9524 3.4402 -3.32181 
1 -14.517 0.308092 -3.54967 
2 -12.4938 3.79721 -5.41464 
1 -12.6144 0.293597 -5.42349 
1 -12.4334 1.77603 -3.47102 
2 -10.7176 1.93534 -5.42955 
1 -10.8019 3.74333 -3.46941 
1 -8.95316 3.77409 -5.3278 
2 -9.11992 1.80357 -3.50622 
1 -7.27007 1.78957 -5.41208 
2 -7.17684 3.54137 -3.59697 
1 -5.39651 3.67931 -5.34764 
1 -5.43921 1.891 -3.50206 
2 -7.17027 0.0292016 -3.48659 
1 -3.6059 1.84859 -5.26756 
1 -1.83702 3.62555 -5.21213 
1 -3.67938 3.65958 -3.52627 
1 -1.84711 1.7068 -3.41463 
1 -0.209412 1.77899 -5.1918 
1 -0.209335 3.59526 -3.43664 
1 3.57288 1.90928 -5.27176 
2 1.63024 3.56901 -5.3187 
1 3.5049 3.58947 -3.47075 
2 1.6939 1.75768 -3.52794 
1 3.521 0.0812686 -3.65113 
1 1.57182 -0.0433753 -5.38755 
1 7.02947 1.68298 -5.14136 
1 7.13962 3.54781 -3.57218 
1 5.31397 3.66618 -5.30288 
1 5.32889 1.75928 -3.47272 
1 7.1581 -0.0387881 -3.52692 
1 5.33231 0.0410617 -5.30888 
1 10.6274 1.77164 -5.28139 
1 10.6537 3.57425 -3.53763 
2 8.88363 3.66658 -5.34687 
1 8.91454 1.8254 -3.55367 
1 12.4696 1.80664 -3.58675 
1 12.4314 3.62935 -5.09203 
1 14.1977 3.71966 -3.44128 
1 -12.5773 5.5105 -3.37822 
1 -10.6673 7.37179 -3.39092 
1 -10.7503 5.57336 -5.17413 
2 -8.92132 7.30121 -5.11876 
1 -8.86902 5.45293 -3.49493 
1 -7.17406 7.22532 -3.42643 
1 -7.14188 5.40651 -5.27605 
1 -5.40547 7.22158 -5.25597 
1 -5.41973 5.36258 -3.49678 
1 -1.95374 7.1571 -5.34272 
1 -3.6687 7.21669 -3.42192 
1 -3.74185 5.54393 -5.30491 
1 -1.97166 5.43563 -3.55552 
1 -0.125486 5.32749 -5.31012 
2 -0.167194 7.23408 -3.69562 
1 1.69232 7.25815 -5.34219 
2 3.41254 7.13976 -3.65576 
1 3.70398 5.25812 -5.30044 
1 1.69672 5.35656 -3.56977 
1 7.20193 7.17748 -3.5117 
1 7.01209 5.4326 -5.34756 
2 5.31547 7.21265 -5.39935 
1 5.45782 5.28101 -3.59558 
1 10.7055 7.11217 -3.33868 
1 10.653 5.38346 -5.1871 
1 8.86221 7.15325 -5.24659 
1 8.74849 5.36617 -3.64571 
2 12.4357 5.47544 -3.41127 
1 -10.6855 8.98217 -5.11938 
1 -8.7893 10.7135 -5.18797 
1 -8.762 9.06121 -3.22453 
1 -10.6204 10.5654 -3.28197 
1 -7.14075 10.8536 -3.42286 
1 -5.52191 10.8686 -5.46105 
1 -7.13263 9.05882 -5.14159 
1 -5.37033 8.99333 -3.48064 
1 -1.86848 10.6608 -5.4817 
1 -3.69984 10.7893 -3.49383 
2 -3.77473 9.03909 -5.32961 
1 -1.93528 9.04741 -3.56008 
1 -1.77556 12.3185 -3.60486 
1 -0.187578 8.90152 -5.52097 
1 -0.22954 12.5641 -5.38209 
1 -0.12406 10.5785 -3.61334 
2 1.55578 10.7545 -5.42136 
1 3.31456 10.767 -3.62098 
1 3.45168 9.04426 -5.43997 
1 1.64699 8.99252 -3.70395 
1 1.52737 12.4494 -3.56766 
1 7.31426 10.8931 -3.47684 
2 5.37982 10.9121 -5.56625 
1 7.23575 8.93841 -5.26667 
2 5.32902 9.14858 -3.69248 
1 5.25103 12.7125 -3.8121 
1 10.6856 8.56233 -5.32662 
1 9.07599 10.5272 -5.35497 
1 9.05183 9.0429 -3.38203 
1 -5.4275 12.5151 -3.82442 
1 -3.44272 12.5024 -5.48846 
1 -3.5219 14.1286 -3.70789 
1 -0.217145 14.3315 -3.60188 
1 3.40212 12.6198 -5.5424 
2 1.51522 14.0471 -5.25366 
1 3.38472 14.1767 -3.68224 
1 -14.2434 3.49873 -0.225755 
1 -14.2647 1.64687 -1.67794 
1 -14.324 1.78326 1.83601 
1 -12.3843 3.7559 -1.57507 
1 -12.4174 1.78853 0.102532 
2 -12.56 3.62256 1.8144 
1 -12.4273 0.110888 -1.73178 
2 -10.6788 3.6501 0.148778 
1 -10.7755 1.8351 -1.74052 
1 -10.6517 1.8621 1.89995 
1 -8.94439 3.6614 -1.79632 
1 -8.85977 3.69143 1.7319 
1 -8.91985 1.86701 -0.0345809 
1 -10.7105 0.0926753 0.00800583 
1 -7.1134 3.51308 0.00344529 
1 -7.21792 1.73544 -1.74152 
1 -7.19747 1.96595 1.74533 
1 -5.35104 3.71896 -1.57577 
1 -5.46608 3.53637 1.87658 
1 -5.37538 1.84956 0.0466071 
2 -5.44082 0.123433 1.79446 
2 -3.58105 3.49045 0.177369 
1 -3.6247 1.80492 -1.75476 
2 -1.80954 3.58869 -1.74547 
1 -3.54114 1.79299 1.94862 
1 -1.8175 3.50628 1.89753 
1 -1.87817 1.7031 0.0246832 
1 -0.0676497 3.62049 0.127454 
1 -0.00892832 1.68202 1.67947 
1 -0.0590787 1.65141 -1.72231 
2 3.56003 3.6402 -0.090899 
1 3.54139 1.75866 -1.83743 
2 1.68922 3.70054 -1.82137 
1 3.63603 1.87726 1.85172 
1 1.71867 3.67541 1.77715 
2 1.71766 1.8205 0.0640941 
2 1.82846 -0.0726576 1.90536 
2 3.62737 0.00415 -0.00813287 
1 7.13348 3.53682 0.0496778 
1 7.21199 1.93063 -1.78536 
1 7.16267 1.85779 1.93337 
1 5.30381 3.62352 -1.82968 
1 5.48721 3.72543 1.83997 
2 5.42038 1.87763 -0.00481612 
1 10.6169 3.58395 0.0616503 
1 10.7627 1.81537 1.84394 
2 10.6027 1.83939 -1.78936 
1 8.89459 3.697 -1.71695 
1 8.8521 3.68894 1.67248 
1 8.90538 1.86113 0.0619973 
2 8.92194 -0.030478 1.84171 
1 12.4972 3.51385 -1.92469 
1 12.3664 1.72387 0.0295742 
1 12.4867 3.5759 1.684 
1 14.1607 3.57609 -0.172998 
2 14.2635 1.81044 -1.84994 
1 14.4129 2.06682 1.94453 
1 14.4594 0.304474 0.326862 
1 -12.5207 5.54724 0.106841 
1 -12.3992 7.16667 -1.6131 
1 -12.3592 7.20822 1.83068 
1 -10.5761 7.02315 0.134456 
1 -10.5991 5.44408 -1.82077 
1 -10.7102 5.39986 1.86121 
1 -8.84859 7.19936 -1.60441 
2 -8.94848 7.12475 1.75459 
1 -8.79741 5.2527 0.0110801 
1 -7.09362 7.06091 0.0946045 
1 -7.1105 5.3625 -1.74942 
2 -5.37978 7.19991 -1.69298 
1 -7.10105 5.33745 1.74297 
1 -5.36868 7.11434 1.85555 
1 -5.29755 5.35872 0.116499 
1 -3.6972 7.24751 0.159328 
1 -2.09001 7.20838 -1.7841 
1 -1.86268 7.10903 2.05985 
1 -3.70178 5.33749 -1.68889 
1 -3.684 5.3272 1.96771 
2 -1.86852 5.56915 0.0933474 
1 -0.137135 7.16626 0.109882 
1 0.0293398 5.39519 1.78641 
1 -0.209605 5.53023 -1.84046 
1 3.40874 7.09757 -0.119952 
1 1.73204 7.07896 -1.80087 
2 1.7579 7.16704 1.82562 
1 3.57877 5.3396 -1.80288 
2 3.51777 5.40475 1.68436 
1 1.56349 5.34787 -0.0559331 
1 6.97809 7.29219 0.0494823 
1 7.04309 5.38435 -1.8092 
2 5.26243 7.08525 -1.82335 
1 7.01731 5.4043 1.79699 
1 5.25251 7.30285 1.74896 
1 5.47855 5.37427 0.0213226 
1 10.4199 7.20937 -0.232262 
1 10.6781 5.46065 1.56081 
1 10.5086 5.36868 -1.62401 
1 8.79325 7.2495 -1.79473 
2 8.8159 7.39479 1.7193 
1 8.78793 5.32856 -0.00138222 
2 12.4249 6.99725 1.41432 
1 12.3804 5.19972 -0.265027 
1 12.4955 7.46505 -1.27824 
2 -8.92968 10.9087 -1.47884 
1 -8.95353 10.6748 1.59419 
2 -10.6324 8.89427 -1.45049 
1 -10.8337 9.04396 1.696 
1 -8.78824 8.86928 0.0361229 
1 -7.0829 10.7929 0.0809974 
1 -5.39632 10.7669 1.99091 
1 -5.31319 10.8196 -1.74425 
1 -7.01654 9.11645 -1.58458 
1 -7.07414 9.12788 1.82818 
1 -5.43133 9.03146 0.0403189 
1 -7.05882 12.3886 1.89252 
1 -3.60671 10.6789 0.107468 
2 -1.91105 10.7863 1.87349 
1 -1.89375 10.7938 -1.65309 
1 -3.58037 9.08453 -1.73115 
2 -3.72783 8.91864 1.91944 
1 -1.85069 8.87485 0.202867 
1 -3.60914 12.4321 -1.82186 
1 -1.84147 12.5434 0.020549 
1 -0.0757753 8.97791 1.87508 
1 -0.134002 12.4259 -1.80763 
2 -0.144014 8.95066 -1.71182 
1 -0.135519 10.6103 0.0190543 
1 3.38161 10.7006 -0.0457885 
1 1.76028 10.7535 1.76433 
1 1.54863 10.6085 -1.80899 
1 3.3006 8.96251 -1.81765 
1 3.61589 8.94184 1.81921 
1 1.71152 8.93224 0.0816138 
2 1.59482 12.4257 -0.0643695 
1 7.01753 10.7382 0.0357133 
1 5.24617 10.7706 1.75028 
2 5.25306 10.8478 -1.98822 
1 7.0323 9.04368 -1.8543 
1 6.96049 9.17932 1.79133 
2 5.13682 9.01052 -0.0787681 
2 6.8907 12.5663 1.70807 
1 7.07626 12.4745 -1.64428 
1 10.7354 8.98123 -1.64108 