ITEM: TIMESTEP
1130000
ITEM: NUMBER OF ATOMS
1289
ITEM: BOX BOUNDS pp pp pp
-100 100
-100 100
-100 100
ITEM: ATOMS type x y z 
1 -1.74825 -7.198 -12.3831 
1 -3.61658 -5.25927 -12.5547 
1 -0.0715137 -5.18395 -12.3571 
1 1.6361 -6.9975 -12.4646 
1 3.34338 -5.20029 -12.5158 
1 -7.28312 -1.53508 -12.3369 
2 -5.52438 -3.30226 -12.4339 
2 5.27962 -3.3035 12.4201 
2 -1.62542 -1.59272 -14.4713 
2 -3.60222 -1.67992 -12.592 
1 -1.77608 -3.46315 -12.4638 
1 -0.142785 -1.74435 -12.3162 
1 0.0262741 -3.53756 -14.1557 
2 3.24903 -3.3051 -14.1866 
1 1.57777 -3.27355 -12.4285 
1 3.44329 -1.77001 -12.3542 
1 1.39579 -1.67932 -14.3041 
1 5.13429 -1.58056 -14.408 
2 7.04012 -1.70546 -12.5061 
2 5.20505 -3.41779 -12.5016 
1 -8.70359 -9.05355 -7.09959 
2 -5.1188 -10.6265 -8.69069 
1 -5.28649 -8.86171 -10.5344 
1 -6.91429 -10.8092 -6.90883 
1 -6.95378 -8.76284 -8.93963 
1 -5.25666 -8.88146 -7.01447 
1 -1.84566 -12.588 -7.18686 
1 -2.06225 -10.8068 -8.99483 
1 -1.74995 -8.86443 -10.7395 
1 -3.51688 -10.6175 -6.96363 
2 -3.56162 -8.75442 -8.85559 
1 -1.79457 -8.86866 -7.04659 
1 -0.112627 -8.84813 -8.86778 
2 -0.14561 -10.7656 -7.22768 
1 -0.13552 -10.6599 -10.4606 
1 1.63248 -12.4107 -7.25089 
2 1.86643 -10.6158 -8.99667 
1 1.6951 -8.9974 -10.8905 
1 3.62357 -10.655 -7.13756 
2 3.56467 -8.76406 -8.9496 
1 1.88108 -9.00977 -7.16787 
1 5.32607 -10.4179 -8.95606 
1 7.07433 -8.78181 -9.13279 
1 5.42326 -8.70093 -7.09824 
1 6.9843 -10.5655 -7.22185 
1 5.29973 -8.65139 -10.7287 
1 8.94856 -8.90474 -7.16964 
1 -10.7136 -5.09123 -8.97334 
1 -8.90549 -5.26407 -10.6156 
1 -8.95381 -7.05089 -9.04523 
2 -8.97904 -5.25052 -7.09025 
2 -10.6499 -7.11125 -7.15156 
1 -7.00543 -6.90016 -10.6319 
1 -5.43731 -5.14123 -10.6183 
1 -7.06568 -5.30347 -8.92537 
1 -5.26977 -6.96705 -8.84433 
2 -7.10854 -7.13587 -7.17853 
1 -5.30431 -5.27828 -7.23374 
2 -3.75381 -6.96982 -10.6968 
1 -1.94984 -5.26009 -10.81 
1 -1.92083 -7.1658 -9.05082 
1 -3.62043 -5.13631 -9.06524 
1 -3.52043 -7.07665 -7.08564 
2 -1.90009 -5.21052 -7.07326 
2 -0.0178393 -7.26552 -7.1293 
1 -0.0448197 -7.10914 -10.656 
2 -0.138863 -5.44748 -8.99953 
2 3.41591 -7.0265 -10.911 
1 1.69781 -5.27485 -10.7423 
1 1.75947 -7.13251 -8.97067 
1 3.65139 -5.3917 -8.98118 
1 3.54999 -7.14445 -7.15659 
2 1.93517 -5.23772 -7.24559 
1 6.93738 -6.79177 -11.0716 
1 5.17474 -5.28711 -10.6994 
1 5.50214 -6.99867 -8.88479 
1 7.05592 -5.24666 -9.06613 
1 7.16962 -7.0654 -7.24322 
1 5.3109 -5.40199 -7.09869 
1 8.68043 -4.98614 -10.9187 
1 10.3636 -5.0379 -8.91566 
1 10.5175 -6.98544 -7.35208 
2 8.83169 -6.96677 -9.10213 
1 8.73963 -5.32467 -7.18145 
1 -12.6187 -1.88464 -6.81844 
1 -10.7966 -2.04277 -8.8552 
1 -9.0244 -1.73971 -10.6332 
1 -10.8771 -3.70622 -7.01941 
1 -8.84945 -3.59913 -8.87052 
1 -9.03057 -2.02675 -7.00542 
1 -10.9555 -0.289756 -7.03862 
1 -9.14727 -0.290364 -8.74792 
1 -7.1297 -3.42902 -10.6753 
1 -5.41409 -1.52969 -10.6576 
1 -7.16409 -1.8912 -8.78912 
1 -5.35062 -3.48662 -9.00614 
1 -7.00626 -3.59468 -7.0806 
1 -5.30997 -1.73823 -7.13893 
1 7.054 -1.75988 12.4054 
1 3.60669 -1.71068 12.5829 
1 -3.64078 -3.37245 -10.7772 
1 -1.91139 -1.66553 -10.7354 
1 -3.56537 -1.6684 -8.90753 
2 -1.86725 -3.50665 -8.92089 
1 -3.70291 -3.41594 -7.12349 
1 -1.78411 -1.74274 -7.07269 
1 -0.124313 -1.74674 -8.94068 
1 -0.13101 -3.46696 -10.7341 
1 -0.0503023 0.0972213 -7.18214 
1 -0.0227666 -3.37311 -7.10134 
1 1.91787 -3.50334 12.4695 
1 0.0330577 0.0485327 -10.5938 
1 1.63702 -1.74622 14.2483 
1 -1.77636 0.0501689 -9.00893 
1 3.39062 -3.5707 -10.7989 
1 1.6488 -1.75353 -10.4996 
1 1.5834 -3.59944 -8.96338 
2 3.57475 -1.8123 -8.83152 
1 3.63267 -3.50214 -7.05637 
1 1.62049 -1.65213 -7.21219 
1 6.87807 -3.51541 -10.7971 
1 5.17276 -1.65276 -10.6842 
1 7.04858 -1.80271 -9.02723 
1 5.36683 -3.63116 -8.89078 
1 6.96308 -3.62436 -7.12723 
1 5.3856 -1.71563 -7.07346 
1 -0.0902065 0.00867668 14.3099 
1 0.0776393 -1.71443 12.4413 
1 8.83112 -2.03424 -10.9332 
1 10.4633 -3.5133 -7.11075 
1 8.63949 -3.52193 -9.02048 
2 8.6394 -1.85845 -7.14081 
2 10.4491 -1.85147 -9.12527 
1 -1.65214 0.136234 12.4934 
1 -1.81322 -3.51033 12.2976 
1 12.2936 -1.89998 -7.3382 
1 -5.28704 -12.5446 -3.31417 
1 -1.71212 -14.22 -5.45816 
1 -3.46847 -12.4623 -5.18803 
1 -1.80858 -12.6114 -3.43361 
2 -0.0429333 -14.1989 -3.55789 
1 -0.0628214 -12.542 -5.48658 
1 2.38924 -14.5273 -2.24062 
1 5.00224 -12.5539 -3.61422 
1 -10.688 -8.87578 -5.34983 
1 -8.79065 -10.7337 -5.24473 
2 -8.99395 -8.97499 -3.45621 
1 -7.14363 -10.7376 -3.431 
1 -5.26216 -10.7053 -5.03041 
1 -6.99355 -8.97588 -5.25507 
1 -5.23139 -8.8198 -3.50775 
2 -1.71096 -10.7145 -5.2692 
1 -3.45205 -10.7274 -3.44182 
1 -3.57062 -8.86826 -5.30713 
2 -1.80762 -8.83581 -3.59757 
1 0.0687946 -8.8796 -5.28622 
2 0.20285 -10.7832 -3.53632 
1 3.54432 -12.564 -5.71727 
2 2.05511 -12.5977 -3.76953 
1 1.81034 -10.6659 -5.45439 
1 3.55402 -10.5854 -3.58728 
1 3.6243 -8.95574 -5.34248 
1 1.86773 -8.91732 -3.61947 
2 6.98401 -10.8414 -3.62384 
1 5.3623 -10.8464 -5.57033 
1 7.13872 -8.87665 -5.45188 
2 5.43112 -9.0291 -3.65954 
1 8.81966 -10.6441 -5.41045 
2 8.90454 -8.92169 -3.58923 
1 10.6806 -8.96438 -5.30982 
1 8.83815 -10.8254 -1.87552 
1 -12.5804 -5.50956 -3.28553 
1 -10.828 -7.16323 -3.54652 
1 -10.9081 -5.42985 -5.17721 
2 -8.87113 -7.15396 -5.32658 
1 -8.85137 -5.46657 -3.50958 
1 -7.04699 -7.15352 -3.6276 
1 -7.10296 -5.30075 -5.37721 
1 -5.33559 -7.1032 -5.39381 
1 -5.35812 -5.28802 -3.48535 
1 -1.82454 -7.0469 -5.34661 
1 -3.66275 -7.10936 -3.66447 
1 -3.7093 -5.29864 -5.294 
1 -1.85886 -5.3405 -3.67243 
2 -0.005774 -5.17055 -5.31351 
1 0.0160946 -7.11371 -3.59111 
2 1.83369 -7.15014 -5.33891 
1 3.73636 -7.14066 -3.62537 
1 3.55402 -5.30316 -5.39493 
1 1.69417 -5.26682 -3.64076 
1 7.10947 -7.15267 -3.67364 
1 5.48062 -6.98648 -5.38155 
1 7.13332 -5.31975 -5.34259 
1 5.34613 -5.33967 -3.59394 
1 10.8372 -7.22427 -3.64018 
1 10.7461 -5.25902 -5.45056 
2 8.84725 -7.07874 -5.47403 
2 8.95327 -5.39588 -3.56879 
1 12.442 -5.33145 -3.5459 
1 -14.313 -3.67369 -3.30695 
1 -12.6671 -3.68523 -5.23315 
2 -12.4706 -1.60853 -3.4698 
1 -1.62678 -1.81128 14.1141 
1 -10.7047 -1.9054 -5.26883 
2 -10.7657 -3.64404 -3.52914 
1 -8.89748 -3.74566 -5.24139 
2 -8.96504 -1.73394 -3.42828 
1 -3.56662 -1.85319 12.6081 
2 -7.25352 -1.96038 -5.2299 
1 -7.06361 -3.62786 -3.4779 
1 -5.30909 -3.47837 -5.19302 
1 -5.26984 -1.7043 -3.50622 
1 -3.69754 -1.52701 -5.39781 
1 -1.97881 -3.32169 -5.29856 
1 -3.52185 -3.498 -3.50092 
1 -1.73731 -1.63699 -3.58263 
2 0.0312762 -3.70677 13.9874 
1 -0.111298 -3.40998 -3.59631 
1 0.0411541 -1.7423 -5.37594 
1 -5.44354 -0.147389 12.6338 
1 1.86827 -3.37274 -5.35213 
1 3.51481 -1.63228 -5.40283 
1 3.60013 -3.57088 -3.65362 
2 1.71602 -1.75577 -3.57228 
1 -5.43498 -3.45871 12.5923 
1 7.00542 -1.91069 -5.32098 
1 6.99984 -3.53348 -3.57018 
1 5.31844 -3.60627 -5.41977 
1 5.20974 -1.86332 -3.66585 
1 -7.44103 -1.76007 12.135 
1 10.4782 -1.76675 -5.27347 
1 10.52 -3.6701 -3.47244 
1 8.84152 -3.55973 -5.45722 
1 8.81168 -1.81227 -3.50783 
1 12.1746 -1.89101 -3.50613 
1 0.00246047 -5.28295 12.2436 
2 12.3205 -3.41696 -5.41416 
1 1.9342 -5.32138 14.0704 
2 14.0631 -3.17348 -3.25674 
2 14.1493 -0.231469 -3.56324 
1 -3.25424 -14.309 0.543061 
1 -1.66212 -14.3183 -1.51237 
1 -0.973495 -14.4672 1.17982 
1 0.641994 -14.6662 -0.527993 
1 3.48324 -14.2536 0.195591 
2 1.51746 -14.1019 1.9017 
1 4.84187 -14.3033 -1.86228 
1 -10.8569 -10.415 0.0103847 
1 -10.8533 -8.85223 -1.83701 
1 -8.93113 -10.809 -1.45138 
2 -8.81782 -10.6119 1.60667 
1 -8.79589 -8.82355 -0.0806224 
2 -10.6954 -8.90947 1.87751 
1 -5.15253 -12.866 0.126174 
2 -7.08272 -12.457 1.43366 
2 -7.02308 -12.4631 -1.48624 
1 -7.0639 -10.5294 -0.092581 
2 -5.1478 -10.8353 -1.64882 
2 -5.26733 -10.6151 1.65701 
1 -7.09742 -8.96252 -1.94874 
1 -7.01831 -8.77698 1.62402 
1 -5.29436 -8.86679 -0.078908 
1 -3.49423 -12.7677 -1.72535 
2 0.062869 -12.5627 -1.71512 
1 -1.69636 -12.3328 -7.59372e-05 
1 -3.26938 -12.1759 1.73349 
1 -3.3142 -10.6889 -0.0471515 
1 -1.75907 -10.5983 -1.79679 
1 -1.70768 -10.5228 1.84781 
1 -3.55041 -8.67482 -1.73441 
1 -3.49027 -8.86479 1.74279 
1 -1.76474 -8.72015 0.042765 
1 0.0142803 -10.5191 0.0206498 
1 0.11104 -8.88149 1.79278 
1 0.0288561 -12.3064 1.75827 
2 1.75491 -12.4179 0.0409973 
1 0.137509 -8.83028 -1.77407 
1 3.55971 -12.4486 1.84175 
1 3.53609 -12.3954 -1.65286 
1 3.5607 -10.7281 0.242489 
1 1.86222 -10.6922 -1.73097 
1 1.74968 -10.6758 1.82338 
1 3.5398 -8.96615 -1.83537 
1 3.51352 -8.85488 1.74036 
1 1.83236 -9.07036 0.0640792 
1 6.84527 -12.4611 1.84176 
1 5.25258 -12.5537 -0.00246504 
2 6.92446 -12.5162 -1.80417 
1 6.95866 -10.6613 -0.0360264 
1 5.14203 -10.7508 -1.70659 
1 5.33299 -10.7237 1.83057 
1 7.03459 -9.03746 -1.77142 
2 6.95567 -8.79601 1.6643 
1 5.19076 -8.81419 -0.117165 
1 8.52943 -12.4346 0.107586 
1 10.7655 -9.17881 -1.96173 
1 10.7307 -9.03199 1.59992 
2 8.8776 -9.01421 -0.265016 
1 8.77911 -10.7654 1.58492 
1 -12.6116 -5.39553 0.223088 
1 -12.5334 -7.07462 -1.49594 
2 -10.6595 -7.29291 0.0584888 
1 -10.717 -5.39314 -1.67099 
1 -10.7284 -5.28197 1.72226 
1 -8.86413 -7.11934 -1.84638 
1 -8.97604 -7.04923 1.79764 
1 -8.84821 -5.33046 -0.0700124 
1 -7.10967 -7.01653 -0.0151937 
1 -7.10151 -5.27576 -1.80168 
1 -5.42096 -7.01115 -1.69044 
2 -7.17923 -5.32573 1.84516 
1 -5.19898 -7.11741 1.73002 
1 -5.34535 -5.32767 0.0613073 
1 -3.55732 -7.09103 0.0426921 
1 -1.73155 -7.08341 -1.80708 
1 -1.69359 -7.13862 1.8453 
1 -3.52443 -5.39858 -1.74808 
1 -3.53357 -5.24978 1.80574 
2 -1.76341 -5.4285 0.0730287 
1 0.00502649 -5.44093 -1.80366 
1 0.136675 -5.40109 1.85203 
1 0.190551 -7.24143 -0.0437284 
1 3.40884 -7.18761 0.00243953 
2 1.81238 -7.1043 -1.79124 
1 1.86228 -7.09637 1.79135 
2 3.63476 -5.30136 -1.80838 
1 3.48329 -5.28487 1.81394 
1 1.81448 -5.32452 0.0723557 
1 7.00217 -7.11417 -0.120742 
1 5.34226 -7.23212 -1.85381 
1 7.0575 -5.47196 -1.97655 
1 5.20541 -6.9684 1.66459 
2 7.07366 -5.42464 1.69994 
1 5.26504 -5.39424 -0.142407 
1 10.7165 -7.29284 -0.109312 
1 10.5801 -5.47561 1.65853 
1 10.7733 -5.48628 -1.81234 
1 8.97556 -7.21874 -1.78635 
1 8.89077 -7.25379 1.57634 
1 8.91797 -5.39484 -0.172535 
1 12.4654 -7.24152 -1.82436 
1 12.4366 -7.19084 1.64794 
2 12.4513 -5.44313 -0.201992 
1 -14.205 -3.62537 0.13398 
2 -14.2151 -1.87868 -1.5853 
1 -14.1828 -1.71439 1.76023 
1 -14.3764 0.0520605 -0.0532978 
1 -12.4308 -3.6658 -1.70113 
1 -12.4359 -1.77896 0.0102416 
1 -12.5165 -3.49732 1.8178 
1 -10.654 -3.64214 -0.0358548 
1 -10.7148 -1.83723 -1.63553 
1 -10.6975 -1.79385 1.61702 
1 -8.88289 -3.6677 -1.81436 
2 -8.97695 -3.55836 1.81334 
1 -8.90996 -1.77112 -0.0815562 
2 1.81428 -7.1498 12.3858 
1 3.64807 -5.49362 12.5081 
1 -7.07561 -3.47995 -0.0128365 
1 -7.13591 -1.88068 -1.68282 
1 -7.13065 -1.66076 1.76087 
1 -5.32448 -3.54571 -1.70954 
2 -5.37963 -3.51079 1.80839 
2 -5.23634 -1.69685 -0.0908854 
1 -3.47575 -3.55435 -0.00316687 
1 -3.5356 -1.69709 -1.946 
2 -1.79335 -3.66416 -1.77903 
2 -3.49946 -1.72894 1.81701 
1 -1.69367 -3.5076 1.80425 
1 -1.84251 -1.84663 -0.0404283 
1 -0.126686 -1.76704 1.80551 
1 -0.147557 -0.0356548 0.0309249 
1 -0.0926042 -1.74927 -1.81588 
1 -0.00210236 -3.50328 0.111806 
2 3.54812 -3.47856 0.0267481 
2 1.64382 -3.59333 -1.82551 
1 3.60226 -1.79778 -1.8415 
1 1.8011 -3.54705 1.86252 
1 3.66308 -1.7775 1.8984 
1 1.78557 -1.78283 0.00328155 
2 1.80662 -0.128412 1.82729 
1 -1.81572 -6.98235 12.4926 
1 1.57891 0.0263115 -1.75957 
1 7.09787 -3.61216 -0.0369414 
1 7.02988 -1.77009 -1.86674 
1 6.98161 -1.82367 1.84109 
1 5.36076 -3.54788 -1.87464 
1 5.33806 -3.62863 1.76663 
2 5.37415 -1.57604 -0.0312714 
1 10.6985 -3.67019 -0.0162793 
1 10.6702 -1.94879 1.6284 
1 10.4697 -1.94045 -1.81706 
1 8.75119 -3.73916 -1.77532 
1 8.86207 -3.68759 1.73473 
2 8.86672 -1.85537 -0.053239 
1 12.1621 -3.52649 -1.88534 
1 12.3251 -1.87101 -0.0523294 
2 12.5129 -3.79071 1.68289 
1 -3.5263 -5.2558 12.7206 
2 14.1348 -3.58875 -0.283415 
1 14.3919 -1.55562 -1.48928 
1 14.2131 -1.97168 1.55255 
1 -0.0711275 -6.63183 14.1098 
2 -5.23248 -12.5507 3.28717 
2 -2.91818 -14.0946 2.86354 
1 -0.19812 -14.1381 3.61193 
2 -3.3387 -12.5329 5.07583 
1 3.28363 -14.1623 3.73848 
1 3.63344 -12.4515 5.51492 
2 -0.0575505 -12.3406 5.38475 
1 1.73531 -12.4008 3.60358 
1 5.29659 -12.7474 3.58452 
1 -10.4756 -10.7058 3.49525 
1 -10.5043 -8.97402 5.23989 
2 -8.67482 -8.83923 3.5714 
2 -8.60319 -10.6876 5.14907 
1 -6.98641 -10.7021 3.54237 
1 -5.45379 -10.9641 5.37229 
1 -6.83991 -8.98199 5.46289 
2 -5.37207 -8.85406 3.51537 
1 -1.58345 -12.2194 3.49943 
1 -1.72607 -10.4958 5.43021 
1 -3.44522 -10.5733 3.56969 
2 -3.68003 -8.87643 5.47862 
1 -1.72289 -8.81462 3.64973 
1 0.0796911 -8.93249 5.32722 
1 0.0241724 -10.481 3.55236 
1 1.77182 -10.5933 5.51716 
2 3.52056 -10.7404 3.66353 
1 3.43323 -8.84223 5.25848 
1 1.86127 -8.85358 3.5304 
1 7.05483 -10.7847 3.59996 
1 5.34363 -10.8408 5.34848 
2 7.13682 -8.8769 5.31689 
2 5.31025 -8.90219 3.56806 
1 8.75089 -10.6428 5.39573 
2 8.95743 -8.96883 3.51939 
2 10.426 -8.73002 5.49599 
1 -12.4005 -5.29638 3.41552 
1 -10.6359 -7.06247 3.51773 
1 -10.8425 -5.4492 5.34509 
1 -8.78477 -7.1195 5.44064 
1 -9.01694 -5.28804 3.72501 
1 -7.15282 -7.05325 3.62764 
1 -7.06522 -5.34084 5.35695 
1 -5.36481 -7.08431 5.5088 
2 -5.25579 -5.46423 3.72241 
1 -1.77582 -7.19677 5.497 
1 -3.4487 -7.16744 3.57336 
1 -3.64753 -5.28288 5.58818 
2 -1.75683 -5.30956 3.44551 
2 0.0493032 -5.34748 5.38319 
1 0.0337775 -7.17244 3.54725 
1 1.65502 -7.12732 5.43216 
1 3.53013 -7.07707 3.5607 
1 3.43901 -5.29677 5.26181 
1 1.77871 -5.30131 3.6155 
1 7.07779 -7.11941 3.56566 
1 5.20708 -7.20622 5.29762 
2 7.02453 -5.42328 5.37861 
2 5.21057 -5.32623 3.53526 
1 10.6503 -7.25439 3.41552 
1 10.7638 -5.61404 5.28307 
1 8.93549 -7.08804 5.49528 
1 8.91691 -5.55928 3.48161 
2 12.4162 -5.4265 3.49222 
1 -14.0767 -3.22117 3.69415 
1 -12.5579 -3.46585 5.35964 
1 -12.354 -1.747 3.56428 
1 -10.764 -1.8607 5.38189 
1 -10.758 -3.6266 3.61377 
1 -8.96423 -3.61362 5.48405 
2 -9.11687 -1.73429 3.58899 
1 -7.30429 -1.69374 5.48452 
2 -7.21141 -3.35809 3.63882 
1 -5.42522 -3.46308 5.473 
1 -5.3388 -1.71819 3.73212 
2 -3.5787 -1.74376 5.49289 
2 -1.74664 -3.50836 5.4336 
1 -3.65197 -3.63464 3.69679 
1 -1.81262 -1.59346 3.6852 
1 -0.0211961 0.0208142 3.55734 
1 -0.0122659 -1.68554 5.38129 
1 -1.82083 0.124294 5.51147 
1 -0.160198 -8.77515 12.5395 
1 0.0435757 -3.48995 3.65394 
1 1.66688 -3.48914 5.47819 
1 3.44476 -1.71639 5.33136 
1 3.51597 -3.47905 3.52693 
1 1.71929 -1.78495 3.66011 
2 12.6393 -1.68112 7.18784 
1 7.17926 -1.80427 5.38539 
1 7.04283 -3.53139 3.58242 
1 5.24873 -3.53353 5.30257 
1 5.27027 -1.75031 3.62394 
2 7.18106 -0.0876773 3.64299 
1 11.6371 -0.0272769 9.42952 
2 10.7323 -1.96269 5.43027 
1 10.6571 -3.704 3.47086 
2 8.92442 -3.78273 5.30096 
1 8.86619 -1.90751 3.49309 
1 10.717 -3.94166 7.02861 
2 12.4521 -2.01663 3.45001 
1 12.4944 -3.85679 5.46342 
1 14.3382 -3.61784 3.52834 
1 14.2927 -1.78501 5.2168 
2 14.1419 -0.184194 3.43731 
1 -8.68241 -9.00517 7.00661 
1 -5.41809 -8.92845 10.7298 
1 -5.11557 -10.6258 8.83948 
1 -6.95211 -10.8416 7.06942 
2 -7.12134 -9.05492 8.9059 
1 -5.42959 -8.91399 7.23677 
1 -1.65196 -12.3722 7.23135 
2 -1.94062 -9.0053 10.6545 
1 -1.97728 -10.5747 8.92124 
1 -3.61726 -10.6699 7.05994 
1 -3.60476 -8.77179 8.79476 
1 -1.75755 -8.85387 7.26912 
1 -0.0327294 -8.90029 9.00599 
1 1.73252 -12.2256 7.19148 
1 -0.0780733 -10.4638 7.253 
1 1.70492 -10.5827 8.96168 
1 3.58364 -10.6287 7.08341 
1 3.57726 -8.79008 8.91499 
1 1.85392 -8.84046 7.19377 
1 1.5716 -9.07472 10.8047 
1 7.00538 -10.6887 7.12027 
1 5.22046 -8.9145 10.6268 
1 5.1426 -10.639 8.81641 
1 7.12282 -8.95123 8.9368 
1 5.28917 -8.78843 7.1641 
1 8.88859 -8.94193 7.32619 
1 -10.6381 -5.41065 9.09548 
2 -10.4744 -7.11562 7.1262 
1 -8.67411 -7.09353 8.99943 
1 -8.77194 -5.39601 7.16595 
1 -9.0042 -5.353 10.7237 
1 -7.13137 -7.1125 10.6773 
1 -7.19102 -5.33049 9.01863 
1 -5.38095 -7.17335 8.91334 
1 -7.06408 -7.14907 7.17705 
1 -5.50684 -5.15706 7.2187 
1 -5.45473 -5.40721 10.9537 
2 -3.72283 -7.20275 10.8255 
1 -1.94554 -5.41777 10.711 
1 -1.92535 -7.08636 8.89638 
2 -3.79181 -5.31689 9.01068 
1 -3.58906 -6.9886 7.16584 
1 -1.75898 -5.36304 7.23298 
2 -0.00472913 -5.38336 9.1966 
1 -0.197311 -7.26505 10.6677 
1 0.166544 -7.10073 7.30144 
1 3.65797 -7.1794 10.8186 
1 1.84433 -5.23906 10.7146 
1 1.80082 -7.22195 9.22373 
1 3.60926 -5.45074 9.07185 
1 3.41109 -7.02098 7.13694 
2 1.78579 -5.31018 7.32355 
1 6.88506 -7.20259 10.7407 
1 5.36881 -5.27838 10.7267 
1 5.39031 -7.15943 8.93242 
1 6.91104 -5.33773 8.84949 
1 7.13314 -7.11621 7.26141 
2 5.21537 -5.39384 7.0834 
1 8.36823 -5.19219 10.7773 
1 10.3261 -4.96637 9.26502 
1 10.7394 -6.88243 7.27896 
1 8.95782 -6.98247 9.05595 
1 8.79239 -5.34998 7.38173 
2 -12.0543 -1.79589 7.40203 
1 -9.16405 -1.5528 10.6022 
1 -11.0803 -2.97859 9.44298 
2 -10.6511 -3.98088 7.16213 
1 -8.84087 -3.62733 9.09212 
2 -9.17767 -1.85508 7.49205 
1 -11.0942 -0.453916 9.31186 
1 -7.18636 -3.62862 10.8372 
1 -5.3657 -1.67418 10.8202 
1 -7.25412 -1.72298 9.00467 
2 -5.50132 -3.44948 9.01506 
1 -7.25475 -3.53267 7.19867 
1 -5.48295 -1.71998 7.2362 
1 -3.7845 -3.60975 10.8021 
1 -1.74365 -1.69737 10.8125 
1 -3.59406 -1.75126 9.05337 
2 -1.84965 -3.53607 9.11351 
1 -3.44955 -3.45727 7.20605 
1 -1.85849 -1.64325 7.24835 
1 -0.0728377 -1.66483 9.05684 
1 -3.53412 0.00869532 10.779 
2 -0.0552083 -3.39682 7.26644 
1 3.4371 -0.0270487 7.16773 
1 0.057417 -3.40693 10.746 
1 1.69886 -1.69267 7.25333 
2 3.53723 -3.41778 7.19537 
1 1.80143 -1.66389 10.8346 
1 1.8533 -3.38087 9.08434 
1 3.51851 -1.69673 8.92747 
1 3.58387 -3.57971 10.7017 
1 8.80676 -1.81981 10.8157 
1 6.9927 -3.50459 7.19967 
1 5.32144 -3.46081 8.82703 
1 5.40122 -1.66863 7.10632 
1 7.01309 -1.65288 8.90916 
1 6.91171 -3.44161 10.6516 
1 5.12454 -1.74623 10.6702 
1 5.37656 0.0237772 8.96519 
1 8.57973 -3.43766 8.99673 
2 10.6776 -2.2679 8.78548 
1 8.80857 -1.91849 7.10721 
2 -1.78867 0.12833 -12.4413 
2 -0.0999267 0.184767 -14.4159 
2 3.24084 0.033066 -14.2796 
2 1.61469 -0.119038 -12.4614 
1 3.42956 0.144342 -10.6177 
2 1.74193 0.132161 -8.86542 
1 5.32704 -0.0552218 12.5279 
1 3.63482 0.0413669 -7.0344 
1 1.7629 0.00339752 -5.35739 
2 -12.3981 0.0748489 1.68775 
1 -7.28207 -0.0138486 0.00550877 
2 8.86842 0.0551514 1.75291 
1 -14.1778 -0.0356341 3.80221 
1 -10.8242 -0.0100704 3.79375 
1 -8.95427 -0.019496 5.45723 
1 1.82945 0.204591 12.5055 
1 -12.5111 -0.117124 5.49584 
1 -7.21314 0.0517529 3.71008 
1 12.6606 0.163111 5.38792 
1 -5.41791 -0.0501517 9.0597 
2 -3.66344 0.0135643 7.30773 
1 -3.44075 -0.0335889 14.2762 
1 -1.7463 0.114031 9.15205 
2 -0.0143747 0.165594 7.22868 
1 3.51493 0.002219 10.73 
1 7.06148 -0.056338 10.7608 
1 -7.51944 1.44262 -12.2498 
1 -5.81505 3.51943 -12.6644 
2 -1.97937 2.06304 -14.1543 
2 -3.82786 2.07807 -12.5236 
1 -1.92146 3.79357 -12.4661 
1 -3.51474 0.0538779 -14.472 
1 -0.0457278 5.47964 12.4244 
2 -0.000305999 1.85952 -12.3838 
1 0.022754 3.53962 -14.3165 
1 1.70978 7.14517 12.5365 
1 3.68941 3.56489 -14.2504 
1 3.52287 1.87604 -12.4319 
2 1.79586 3.65648 -12.5461 
1 1.77096 1.96277 -14.522 
1 3.43316 5.38475 12.687 
1 -1.70937 7.26461 12.527 
1 5.36842 1.74394 -14.2946 
1 7.08237 1.82441 -12.5789 
1 5.41164 3.62931 -12.5702 
2 5.17083 0.104666 -12.5176 
1 -2.04531 7.08323 -12.4254 
1 -3.89032 5.29404 -12.4371 
1 -0.207427 5.42769 -12.5472 
1 1.78738 7.13136 -12.3527 
1 3.64011 5.43651 -12.4292 
1 -12.5081 1.6148 -7.19802 
1 -11.111 2.61759 -9.13782 
1 -9.36109 1.42931 -10.4387 
2 -8.87138 3.59131 -8.89489 
2 -9.13628 1.72937 -7.30425 
1 -10.666 3.76209 -7.05947 
1 -11.4306 0.2253 -9.3592 
1 -7.46033 3.32839 -10.8367 
2 -5.44648 1.85712 -10.6795 
2 -7.18772 1.71611 -8.84146 
1 -5.54255 3.50859 -8.87658 
1 -7.05788 3.59634 -7.13508 
2 -5.3381 1.72145 -7.03445 
1 -7.0563 -0.111898 -7.08164 
1 -3.74363 3.76133 -10.6385 
1 -1.86304 1.89849 -10.7381 
1 -3.6254 1.77422 -8.92801 
2 -1.92426 3.50523 -9.00602 
2 -3.6333 3.5854 -7.05643 
1 -1.76028 1.82518 -7.14367 
1 -0.111676 3.59944 -7.10601 
1 -0.0435063 1.84662 -8.95217 
1 -0.0649979 3.77584 -10.7417 
1 3.50959 3.67968 -10.5935 
1 1.81585 1.92199 -10.6694 
1 3.53066 1.95143 -8.85723 
2 1.77357 3.74889 -8.91881 
1 3.57819 3.70379 -7.03307 
2 1.7862 1.80625 -7.05753 
1 -3.44814 5.48009 12.5919 
1 7.10416 1.8111 12.3364 
1 5.28536 3.53845 12.5385 
2 7.14425 3.71667 -10.6374 
1 5.28139 1.94207 -10.7706 
1 7.18005 1.8869 -8.97479 
1 5.30893 3.59348 -8.86227 
1 7.08043 3.55371 -7.00838 
1 5.36487 1.84615 -7.00533 
2 5.31687 0.169737 -8.96526 
1 8.98353 2.20174 -10.7669 
2 10.6293 1.8294 -8.92941 
1 8.80908 3.55556 -8.77485 
1 8.85398 1.72806 -7.17133 
1 10.6188 3.58381 -6.9489 
1 8.7761 -0.0827526 -8.93092 
2 12.4296 1.65625 -6.95485 
1 -10.4945 5.41847 -8.93569 
1 -10.8197 7.07034 -7.05982 
1 -8.80397 7.20011 -9.15269 
1 -8.91358 5.47443 -7.08272 
1 -8.42918 5.43895 -10.7811 
2 -5.76003 5.23142 -10.7181 
1 -6.97071 7.50134 -10.9998 
1 -7.09295 5.43645 -8.79418 
1 -5.51122 7.25626 -9.02013 
2 -7.15746 7.21964 -7.03634 
1 -5.3446 5.41684 -7.16837 
2 -3.95573 7.10345 -10.9063 
1 -1.84767 5.38814 -10.7331 
1 -1.86221 7.15711 -8.7922 
2 -3.70726 5.48052 -8.97621 
1 -3.60948 7.06896 -7.02808 
1 -1.85251 5.38115 -7.03727 
2 -0.089466 5.52126 -9.0311 
1 0.121764 7.38258 -10.7659 
1 0.00191223 7.2745 -7.18301 
1 3.58478 7.1233 -10.7887 
1 1.78996 5.43768 -10.6774 
2 1.85855 7.17952 -8.83972 
1 3.6679 5.45337 -8.72752 
1 3.57501 7.22491 -7.04761 
1 1.71058 5.39922 -7.05303 
1 7.0143 6.9466 -10.631 
1 5.2231 5.49533 -10.5795 
1 7.04652 5.38973 -8.76823 
1 5.49178 7.2363 -8.69599 
1 7.22369 7.16225 -7.1117 
1 5.38564 5.44336 -7.04302 
1 9.09193 5.35656 -10.4678 
1 10.6934 5.2774 -8.61238 
1 8.91095 7.09059 -8.80615 
1 8.91634 5.39478 -6.98185 
2 10.6728 7.09469 -6.86008 
1 -9.13403 8.95282 -7.25678 
1 -5.06738 9.33137 -10.5629 
1 -5.10321 10.7252 -8.64429 
1 -7.17273 9.06736 -8.86924 
1 -5.33701 8.95029 -7.04304 
1 -7.22122 10.646 -7.00805 
2 -2.03361 8.82613 -10.5468 
2 -2.0562 10.5452 -8.68138 
1 -3.52793 10.6405 -6.94162 
1 -3.66167 8.79463 -8.74957 
1 -1.78818 8.89344 -7.04505 
1 -0.0398825 9.01759 -8.93444 
1 -0.150383 10.7077 -7.10741 
1 -1.80574 12.577 -7.02962 
1 2.09893 8.94892 -10.6006 
1 1.63066 10.768 -8.87011 
1 3.40145 10.7781 -7.08216 
1 3.59399 9.02231 -8.68887 
1 1.75481 9.06005 -7.07395 
2 1.54719 12.5718 -7.21078 
1 5.13151 8.88012 -10.5474 
1 5.31827 10.7675 -8.75879 
1 7.09346 10.8848 -7.10349 
1 7.064 8.93092 -8.95158 
1 5.41166 8.99053 -7.07067 
1 9.01676 8.82148 -7.11952 
1 -0.20289 12.2187 -8.77416 
2 -13.9296 3.47562 -3.49033 
2 -12.5419 3.53327 -5.47158 
1 -14.2713 0.0420649 -3.20573 
1 -12.5998 -0.0045678 -5.23499 
1 -12.3688 1.64317 -3.4408 
2 -10.8464 1.82905 -5.32271 
1 -10.8424 3.55256 -3.4811 
1 -8.95768 3.53526 -5.47535 
2 -9.02989 1.90837 -3.51294 
1 -7.27938 1.787 -5.4758 
2 -7.13266 3.64994 -3.62967 
1 -5.5294 3.65888 -5.42294 
1 -5.45294 1.87083 -3.57392 
1 -5.42898 -0.0217406 -5.32701 
2 -7.17842 0.0559272 -3.50227 
1 -3.69328 1.81991 -5.29279 
1 -1.89459 3.60329 -5.27717 
1 -3.72016 3.50321 -3.47947 
1 -1.88287 1.88518 -3.47947 
1 -0.234791 1.89316 -5.24924 
1 -0.115536 3.68006 -3.49995 
1 -1.79419 0.0676274 -5.48647 
1 3.66048 1.85489 -5.24507 
2 1.74765 3.6584 -5.34518 
1 3.6503 3.71242 -3.47788 
2 1.74928 1.81391 -3.52159 
2 0.163259 3.64017 14.1054 
1 7.12498 1.69462 -5.27679 
1 7.17075 3.54685 -3.48122 
1 5.43544 3.57004 -5.2945 
1 5.33686 1.89024 -3.45668 
1 7.08643 0.0500551 -3.56874 
1 10.6808 -0.0169991 -3.65417 
1 10.5984 1.69841 -5.35752 
1 10.7565 3.55572 -3.46556 
2 8.92169 3.55407 -5.30477 
1 8.86513 1.70496 -3.57281 
1 12.5339 3.5752 -5.32137 
1 12.4019 1.64086 -3.78431 
1 14.2101 3.16337 -3.56497 
1 -12.5176 5.35013 -3.45421 
1 -10.7221 7.09143 -3.4513 
1 -10.6999 5.35126 -5.33361 
2 -9.06339 7.30939 -5.19425 
1 -8.98233 5.32684 -3.58279 
1 -7.14646 7.17416 -3.39446 
1 -7.12664 5.46213 -5.40143 
1 -5.28725 7.07515 -5.20762 
1 -5.43353 5.36556 -3.51424 
1 -1.94803 7.1049 -5.3061 
1 -3.65384 7.13968 -3.55634 
1 -3.71978 5.34959 -5.21448 
1 -1.9725 5.43192 -3.47821 
1 -0.0777113 5.27174 -5.33003 
2 -0.0108774 7.02211 -3.64443 
1 1.82994 7.17682 -5.43955 
2 3.53955 7.19314 -3.55576 
1 3.64457 5.40548 -5.33183 
1 1.80097 5.33933 -3.54072 
1 7.13704 7.08718 -3.63626 
1 7.0729 5.3747 -5.27907 
2 5.36613 7.23122 -5.34537 
1 5.42293 5.35922 -3.61133 
1 10.5608 7.08191 -3.49939 
1 10.8148 5.34987 -5.21683 
1 8.85292 7.08341 -5.28797 
1 8.87639 5.27909 -3.57346 
2 12.6064 5.23623 -3.48119 
1 -10.9059 8.94306 -5.22574 
1 -9.116 10.4925 -5.33495 
1 -8.91761 8.8929 -3.48689 
1 -10.6183 10.4941 -3.30305 
1 -7.27219 10.7138 -3.58347 
1 -5.55376 10.6733 -5.25729 
1 -7.15727 8.88269 -5.30894 
1 -5.36364 9.02433 -3.50807 
1 -1.82135 10.6339 -5.27855 
1 -3.66524 10.7378 -3.45394 
2 -3.67199 9.01832 -5.20597 
1 -1.80985 8.86497 -3.50434 
1 -0.06746 8.90052 -5.24885 
1 -0.133079 10.681 -3.60541 
1 -3.51564 12.5143 -5.35255 
2 1.63404 10.7686 -5.27724 
1 3.47869 10.8638 -3.6141 
1 3.55348 9.05361 -5.40968 
1 1.81436 8.91782 -3.53692 
1 1.60615 12.4804 -3.40823 
1 7.14571 11.0015 -3.51338 
2 5.3051 10.918 -5.42728 
1 7.1874 8.92583 -5.45979 
2 5.4505 9.06342 -3.72812 
1 5.51639 12.6664 -3.6396 
1 10.5189 8.84354 -5.14792 
1 8.85759 10.726 -5.23721 
1 8.63628 9.04058 -3.67546 
1 -5.4344 12.585 -3.60866 
1 -1.83174 12.4498 -3.42382 
1 -0.241524 12.4297 -5.35001 
1 -3.65958 14.176 -3.43489 
1 -0.273359 14.2031 -3.50321 
1 3.40518 12.5743 -5.22676 
2 1.65115 14.0706 -5.13577 
1 3.40309 14.3437 -3.45042 
1 -14.1507 3.55902 -0.0176727 
1 -14.215 1.81891 -1.71565 
1 -14.3423 1.80053 1.73561 
2 -12.4988 3.50985 1.80425 
1 -12.4839 1.80743 0.103929 
1 -12.4314 3.50978 -1.63708 
2 -10.6897 3.57041 0.0586734 
1 -10.6979 1.75988 -1.70701 
1 -10.6749 1.68383 1.89215 
1 -8.96778 3.59504 -1.79198 
1 -8.9542 3.5171 1.95776 
1 -8.829 1.79809 0.00236566 
1 1.92509 3.43919 12.4817 
1 -10.6304 0.0857494 -0.0493407 
2 -8.8823 -0.0251735 1.81458 
2 -5.33586 0.0763744 1.74653 
1 -5.41093 0.0802266 -1.90939 
1 -7.1918 3.52471 0.0639666 
1 -7.1718 1.8815 -1.77839 
1 -7.15651 1.75389 1.7474 
1 -5.40004 3.62882 -1.73423 
1 -5.47702 3.5256 1.78965 
1 -5.34037 1.72987 0.0234724 
1 3.5913 1.8121 12.4454 
1 -1.84541 0.13305 -1.74791 
2 -3.6619 3.60093 0.135917 
1 -3.75097 1.85195 -1.73261 
2 -1.83988 3.68711 -1.69456 
1 -3.5062 1.77922 1.83124 
1 -1.85369 3.65159 1.91038 
1 -1.86381 1.78472 0.129485 
1 -3.49364 0.100224 -0.0922405 
1 -0.143554 1.70827 -1.71131 
1 -0.16684 1.81203 1.74196 
1 -0.192514 3.77664 0.180393 
1 -1.78598 -0.0277036 1.78868 
2 3.76996 3.52714 0.0607376 
1 3.55117 1.80476 -1.8084 
2 1.62231 3.65088 -1.71489 
1 3.53234 1.76039 1.86167 
1 1.75889 3.68174 1.8371 
2 1.72523 1.90596 0.110577 
1 7.09226 -0.0357254 -0.00497581 
1 7.05063 3.69122 0.10291 
1 7.16607 1.86769 -1.76755 
1 7.17283 1.76551 1.87938 
1 5.39021 3.5447 -1.80295 
1 5.37803 3.59682 1.95272 
2 5.53498 1.80282 0.0186312 
1 5.46456 0.137713 -1.9149 
1 5.31405 -0.0363342 1.88223 
1 0.0455631 1.88393 12.4033 
1 10.7678 3.54707 -0.0955217 
1 10.8386 1.71525 1.6544 
2 10.664 1.77527 -1.80949 
1 8.85913 3.55818 -1.85183 
1 9.04404 3.51248 1.72423 
1 8.78112 1.91347 0.027115 
1 12.5855 1.62532 -0.00358059 
1 12.6225 3.4157 -1.87237 
1 12.5185 3.6485 1.59159 
1 10.6315 -0.0805916 0.0163453 
1 8.80612 0.0169031 -1.73635 
1 14.2005 3.43568 -0.143897 
2 14.4421 1.32501 -1.85632 
1 14.3642 1.86556 1.69017 
1 14.4556 -0.056195 0.229406 
1 -12.4014 5.35146 -0.141884 
1 -12.4351 7.11348 -1.76094 
1 -12.3904 6.93775 1.62338 
1 -10.5448 6.97795 0.00431252 
1 -10.7143 5.27906 -1.81544 
1 -10.6247 5.29723 1.88773 
1 -8.94347 7.07788 -1.76304 
2 -9.04258 7.11688 1.94148 
1 -8.7425 5.34533 0.131063 
1 -7.16243 7.20528 0.0297098 
1 -7.28588 5.38192 -1.60508 
2 -5.36371 7.18861 -1.72206 
1 -7.16319 5.371 1.80714 
1 -5.4636 7.12264 1.92724 
1 -5.45492 5.43907 0.1317 
1 -3.73822 7.11124 0.12424 
1 -1.98893 7.26776 -1.71299 
1 -1.81857 7.20114 1.91948 
1 -3.71206 5.38707 -1.70477 
1 -3.72621 5.5311 1.85324 
2 -1.87379 5.48216 0.134953 
1 -0.171795 5.54003 -1.67793 
1 -0.134399 5.42328 1.88693 
1 -0.0981705 7.27387 0.0107098 
1 3.47919 7.15818 -0.051521 
1 1.8194 7.20106 -1.67542 
2 1.70328 7.19761 1.65707 
1 3.50524 5.36775 -1.75883 
2 3.54541 5.33998 1.73531 
1 1.72902 5.35956 0.0243459 
1 7.12567 7.03302 -0.0943041 
1 7.14962 5.32022 -1.87357 
2 5.33659 7.0315 -1.74808 
1 7.10804 5.42038 1.80169 
1 5.40009 7.09957 1.72891 
1 5.38514 5.32499 -0.0586214 
1 10.4471 7.11812 -0.309223 
1 10.6599 5.40937 1.58161 
1 10.6205 5.34363 -1.77101 
1 8.79501 7.21262 -1.91187 
2 9.03565 7.28168 1.73809 
1 8.92583 5.25687 0.00554839 
2 11.7838 7.46167 1.58109 
1 12.277 7.21723 -1.78795 
1 12.4956 5.27383 -0.181656 
2 -8.79854 10.6829 -1.63334 
1 -9.01189 10.8137 1.51487 
2 -10.6355 8.89956 -1.50933 
1 -10.9302 8.95352 1.52516 
1 -8.84424 8.80736 0.145275 
1 -7.19521 10.7225 0.0662731 
1 -5.44401 10.6497 1.9492 
1 -5.51403 10.7724 -1.76885 
1 -7.13429 8.95163 -1.70233 
1 -7.10811 8.93704 1.83301 
1 -5.42404 9.0027 0.0132211 
2 -5.44201 12.3579 0.187798 
1 -7.15729 12.5392 1.92348 
1 -3.597 10.7057 0.0221514 
2 -1.74505 10.8235 1.80996 
1 -1.77336 10.7228 -1.71092 
1 -3.53568 8.89296 -1.64342 
2 -3.63574 8.93324 1.82286 
1 -1.82895 8.92295 0.0267263 
1 -3.56179 12.3256 -1.74122 
2 -0.0446726 8.94445 -1.73192 
1 -0.0292737 8.96447 1.8039 
1 0.0892534 10.6947 -0.0283003 
1 3.66559 10.7531 -0.029807 
1 1.89331 10.6877 1.79904 
1 1.8606 10.7721 -1.77806 
1 3.55757 9.00662 -1.83146 
1 3.53733 8.93747 1.82031 
1 1.84823 8.97152 -0.0606241 
1 7.16021 10.5841 -0.113091 
1 5.35276 10.5983 1.81007 
2 5.32605 10.8655 -1.79569 
1 7.11426 8.98266 -1.90825 
1 7.13494 8.87998 1.72263 
2 5.26768 8.91395 0.111369 
2 7.21196 12.1992 1.6329 
1 7.16208 12.58 -1.66704 
1 10.5027 8.91598 -1.98638 
2 10.9982 9.58613 0.292876 
2 9.09186 10.5512 1.59735 
1 8.96994 10.843 -1.67723 
1 8.73962 8.87609 -0.226703 
1 -7.21562 12.606 -1.68399 
2 -5.34279 14.1729 -1.66338 
1 -0.0894332 12.3984 -1.76372 
1 -1.80667 12.5251 -0.0220682 
2 -3.72072 12.4851 2.00041 