ITEM: TIMESTEP
1470000
ITEM: NUMBER OF ATOMS
1289
ITEM: BOX BOUNDS pp pp pp
-100 100
-100 100
-100 100
ITEM: ATOMS type x y z 
1 -1.91157 -7.14432 -12.2488 
1 -3.74882 -5.43967 -12.3619 
1 -0.300817 -5.38034 -12.4412 
1 1.7188 -7.09718 -12.4155 
1 3.52804 -5.43491 -12.5495 
1 -7.18824 -1.82468 -12.5737 
2 -5.61099 -3.78448 -12.3398 
2 -1.79276 -1.73909 -14.1425 
2 -3.7861 -1.85444 -12.6392 
1 -2.05811 -3.68275 -12.4784 
1 -0.0237691 -1.6685 -12.3945 
1 -0.0422302 -3.52124 -14.0948 
2 3.37372 -3.36248 -14.281 
1 1.67174 -3.69146 -12.3781 
1 3.64424 -1.71248 -12.5094 
1 1.60204 -1.87832 -14.0693 
2 1.81339 0.103116 -12.3827 
2 3.39479 -0.0227883 -14.3502 
1 5.40471 -1.66879 -14.2212 
2 7.07769 -1.71341 -12.3184 
2 5.3328 -3.64463 -12.6235 
1 -1.83812 -12.5015 -6.89112 
1 1.65029 -12.5658 -7.01941 
1 -9.19173 -8.97802 -7.06499 
2 -5.52621 -10.4802 -8.8494 
1 -5.51305 -8.90391 -10.7599 
1 -7.40153 -8.901 -9.01073 
1 -5.46873 -8.9732 -6.9966 
1 -7.34945 -10.6024 -7.17892 
1 -1.80733 -10.8849 -8.91913 
1 -1.77986 -8.93964 -10.6402 
1 -3.7604 -10.9561 -7.0694 
2 -3.53597 -9.12425 -8.89499 
1 -1.94851 -8.92527 -6.98709 
1 -0.223443 -9.00891 -8.87749 
2 -0.158539 -10.7127 -7.09579 
1 -0.128535 -10.8238 -10.5489 
1 1.78699 -9.04566 -10.7628 
2 1.69543 -10.7943 -8.84454 
1 3.67113 -10.8408 -7.22986 
2 3.59413 -8.89614 -8.91463 
1 1.66628 -9.03007 -7.18066 
1 5.55825 -10.5513 -8.96719 
1 7.11397 -8.72223 -8.99334 
1 5.43273 -8.97294 -7.11592 
1 7.0845 -10.6109 -6.98893 
1 5.3471 -8.56456 -10.6629 
1 8.97427 -8.75435 -7.26279 
1 -10.8333 -5.39972 -8.82919 
1 -9.03655 -5.08047 -10.6939 
1 -9.05926 -7.19058 -8.87271 
2 -8.95272 -5.30211 -7.13131 
2 -10.8197 -7.00101 -6.98419 
1 -7.15911 -7.02377 -10.5917 
1 -5.54686 -5.40675 -10.6499 
1 -7.22532 -5.35213 -8.9254 
1 -5.48729 -7.31203 -8.79549 
2 -7.27185 -7.27257 -7.14167 
1 -5.42106 -5.35512 -7.19831 
2 -3.82131 -7.20437 -10.6387 
1 -2.03361 -5.4565 -10.6843 
1 -1.91582 -7.19266 -8.83041 
1 -3.77887 -5.36317 -8.8771 
1 -3.66821 -7.20237 -7.12541 
2 -1.91371 -5.28217 -7.13008 
2 -0.0748693 -7.19688 -7.15124 
2 -0.0794864 -5.33173 -9.00371 
1 -0.0972327 -7.24022 -10.548 
2 3.5086 -7.05939 -10.6325 
1 1.66882 -5.38213 -10.6811 
1 1.81841 -7.2529 -8.86653 
1 3.56771 -5.29141 -8.93634 
1 3.66468 -7.12774 -7.19956 
2 1.7658 -5.34794 -7.26904 
1 7.0003 -6.84754 -10.7259 
1 5.2569 -5.25051 -10.6768 
1 5.42708 -6.91902 -8.77849 
1 7.13576 -5.08122 -8.82303 
1 7.04928 -7.02641 -7.19329 
1 5.37489 -5.23178 -7.14207 
1 8.94537 -5.0723 -10.614 
1 10.6999 -5.14637 -8.87162 
1 10.8808 -6.89713 -7.11223 
2 8.88968 -6.81894 -8.74543 
1 8.91267 -5.15396 -7.01016 
1 -12.5723 -1.8431 -6.94573 
1 -10.7513 -1.86178 -8.79606 
1 -9.05694 -1.84003 -10.8496 
1 -10.9849 -3.79957 -7.01943 
1 -9.0559 -3.58032 -8.96411 
1 -9.01074 -1.9705 -7.18044 
1 -10.7866 -0.151321 -7.1394 
1 -8.85638 -0.117959 -9.02732 
1 -7.22444 -3.59204 -10.7527 
1 -5.51659 -1.84857 -10.6144 
1 -7.28499 -1.84591 -8.91895 
1 -5.43772 -3.56528 -8.95251 
1 -7.18958 -3.60125 -7.24926 
1 -5.3206 -1.77527 -7.18752 
1 -5.49573 -0.183605 -8.9959 
1 -7.16598 -0.098446 -7.29948 
1 -7.283 -0.193996 -10.7358 
1 -3.81017 -3.59059 -10.6955 
1 -2.0021 -1.74382 -10.763 
1 -3.69412 -1.77367 -8.98234 
2 -1.95992 -3.43769 -9.03701 
1 -3.66219 -3.47279 -7.09141 
1 -1.91134 -1.71865 -7.23945 
1 0.00680968 -3.50056 -7.26092 
1 0.0155863 -1.62589 -9.03875 
1 -1.86368 0.0947452 -9.10069 
1 -0.0931359 0.0121764 -7.32098 
1 -0.0868367 -3.44575 -10.6928 
1 0.0184776 0.0302351 -10.6701 
1 -3.61256 -0.083016 -7.11923 
1 3.57205 -3.71655 -10.8101 
1 1.97773 -1.87126 -10.8328 
1 1.67369 -3.52498 -9.04046 
2 3.60101 -1.78829 -8.91397 
1 3.49828 -3.47019 -7.24559 
1 1.79511 -1.7301 -7.18315 
2 1.75313 0.08114 -9.06115 
1 3.56583 0.0192718 -7.12245 
1 3.60756 0.107013 -10.7435 
1 7.11788 -3.63453 -10.6889 
1 5.33967 -1.98398 -10.726 
1 7.08569 -1.69116 -8.96283 
1 5.26312 -3.66609 -9.07654 
1 7.15541 -3.53422 -7.12656 
1 5.4541 -1.82415 -7.23359 
2 5.37117 0.174324 -8.98525 
1 8.82571 -1.86454 -10.6725 
1 10.7204 -3.58455 -6.99648 
1 8.8954 -3.51844 -8.84658 
2 8.80293 -1.78834 -6.97643 
2 10.6253 -1.851 -8.92917 
1 12.5148 -1.66788 -7.40294 
2 10.7349 -0.0465585 -7.13177 
1 -5.57034 -12.3657 -3.33874 
1 -1.95991 -14.2228 -4.96212 
1 -3.68114 -12.3994 -5.13198 
2 0.0111113 -14.2124 -3.26277 
1 -1.89582 -12.463 -3.30877 
2 1.95125 -12.4837 -3.68196 
1 -0.103636 -12.6819 -5.1934 
1 3.57864 -12.5313 -5.48434 
1 5.33385 -12.531 -3.63413 
1 -10.8591 -8.79422 -5.19207 
1 -9.14615 -10.6058 -5.19114 
2 -9.15176 -8.8399 -3.41711 
1 -7.2258 -10.5659 -3.48694 
1 -5.48954 -10.7218 -5.18064 
1 -7.32949 -8.93423 -5.26233 
1 -5.42402 -8.79746 -3.51424 
2 -1.91703 -10.7516 -5.26986 
1 -3.71687 -10.5593 -3.502 
1 -3.76755 -8.96745 -5.32885 
2 -1.71109 -8.77759 -3.58638 
2 0.0358685 -10.7202 -3.52591 
1 -0.0836179 -8.81897 -5.37411 
1 1.79934 -10.64 -5.39711 
1 3.57261 -10.6876 -3.55652 
1 3.55736 -9.06327 -5.55999 
1 1.8106 -8.94966 -3.58074 
2 7.13776 -10.7905 -3.77306 
1 5.22977 -10.7332 -5.35496 
1 7.10524 -8.84716 -5.36095 
2 5.33558 -8.92697 -3.63931 
1 8.99372 -10.5922 -5.46803 
2 8.99021 -9.01458 -3.63036 
1 10.618 -8.88998 -5.53989 
1 -12.6535 -5.48662 -3.39125 
1 -10.813 -7.06451 -3.49951 
1 -10.917 -5.38641 -5.16933 
2 -8.98292 -7.02753 -5.24871 
1 -8.90612 -5.34812 -3.5234 
1 -7.1539 -6.99015 -3.67662 
1 -6.9706 -5.11184 -5.30498 
1 -5.39155 -7.16434 -5.27879 
1 -5.33028 -5.33912 -3.64638 
1 -1.87338 -7.06091 -5.30256 
1 -3.59598 -7.18162 -3.67221 
1 -3.6724 -5.34831 -5.33032 
1 -1.84723 -5.37746 -3.61559 
2 -0.0109793 -5.29365 -5.28336 
1 0.207488 -7.03336 -3.55466 
2 1.89106 -7.23646 -5.49114 
1 3.63708 -7.16865 -3.61792 
1 3.56904 -5.34433 -5.32899 
1 1.84483 -5.20847 -3.59263 
1 7.18194 -7.03515 -3.57113 
1 5.44761 -7.06617 -5.4621 
1 7.11717 -5.25242 -5.49546 
1 5.45105 -5.32714 -3.6761 
1 10.9432 -7.10749 -3.7352 
1 10.9258 -5.24465 -5.36034 
2 8.87111 -7.08456 -5.45688 
2 8.91507 -5.31841 -3.6033 
1 12.535 -5.04875 -3.29665 
1 -14.2064 -3.35327 -3.44922 
1 -12.6209 -3.58407 -5.26908 
2 -12.4254 -1.68449 -3.5037 
1 -10.7384 -1.86456 -5.43907 
2 -10.8067 -3.66498 -3.4754 
1 -9.0149 -3.64316 -5.3476 
2 -8.84766 -1.93394 -3.45851 
2 -8.97457 -0.0552876 -5.4815 
2 -7.15533 -1.93102 -5.5021 
1 -7.074 -3.58584 -3.51951 
1 -5.3201 -3.54915 -5.4465 
1 -5.33875 -1.76989 -3.51375 
1 -3.48525 -1.77253 -5.36813 
1 -1.90295 -3.47262 -5.36872 
1 -3.61588 -3.60095 -3.65502 
1 -1.85554 -1.70872 -3.65629 
1 -0.00353985 -3.55081 -3.66407 
1 -1.84431 0.000200937 -5.33873 
1 -0.149203 -1.7477 -5.46849 
1 1.64918 -3.46345 -5.48212 
1 3.54596 -1.73962 -5.4197 
1 3.53061 -3.49641 -3.6962 
2 1.67518 -1.67408 -3.66316 
1 1.72339 -0.0730397 -5.432 
1 7.06089 -1.79111 -5.26008 
1 7.09382 -3.57003 -3.64481 
1 5.30779 -3.56093 -5.40078 
1 5.30559 -1.85978 -3.53373 
1 5.25632 -0.0312686 -5.30325 
1 7.0882 0.0278002 -3.66911 
1 10.6776 -1.66379 -5.23993 
1 10.6052 -3.50062 -3.59464 
1 8.89638 -3.53221 -5.34416 
1 8.90779 -1.65102 -3.69914 
1 12.376 -1.65541 -3.51729 
1 10.7468 0.0967833 -3.69593 
2 12.5184 -3.21868 -5.35143 
2 12.678 -0.0948988 -5.43016 
2 14.0972 -3.08254 -2.98976 
2 14.3548 -0.139694 -3.55448 
1 -5.31527 -12.662 0.0087764 
1 -1.89909 -14.2794 -1.6205 
1 -3.53205 -14.2343 0.0993671 
1 -1.54429 -14.3316 1.4524 
1 -3.7836 -12.4889 -1.7573 
1 0.197653 -14.5281 -0.363432 
1 2.18598 -14.3859 -1.78666 
1 3.73321 -14.4063 0.255842 
2 1.53708 -14.0948 1.58373 
1 4.94352 -14.1635 -1.76242 
1 5.24993 -12.5682 -0.0940586 
1 -10.8699 -10.5232 0.137874 
1 -10.9607 -8.6374 -1.67613 
1 -9.02175 -10.6555 -1.457 
2 -8.90754 -10.7042 1.73428 
1 -9.0691 -8.79073 0.0187654 
2 -10.7518 -8.76643 1.96726 
2 -7.05563 -12.4661 1.52376 
2 -7.20354 -12.2638 -1.33204 
1 -7.22044 -10.35 0.0662057 
2 -5.36583 -10.5138 -1.54643 
2 -5.31222 -10.6136 1.67439 
1 -7.21169 -8.82445 -1.79446 
1 -7.16226 -8.68691 1.79299 
1 -5.36692 -8.67922 0.013127 
2 -0.161901 -12.3971 -1.63969 
1 -1.79801 -12.4485 -0.0180904 
1 -3.51969 -12.2511 1.57643 
1 -3.5403 -10.6103 -0.0775256 
1 -1.90572 -10.5905 -1.77886 
1 -1.80163 -10.5492 1.73388 
1 -3.53199 -8.84664 -1.77892 
1 -3.54473 -8.88838 1.77321 
1 -1.80633 -8.77905 -0.0285307 
1 -0.11863 -12.3933 1.62579 
1 0.1097 -8.8793 -1.69242 
1 -0.0566301 -10.6075 -0.0189071 
1 0.0673754 -8.92813 1.69733 
2 1.84991 -12.5034 -0.210089 
1 3.49508 -12.4205 1.62761 
1 3.54027 -12.3266 -1.90094 
1 3.55567 -10.5509 -0.0259741 
1 1.83874 -10.5995 -1.67762 
1 1.82109 -10.6734 1.58047 
1 3.61179 -8.92316 -1.92378 
1 3.66675 -8.95365 1.66922 
1 1.76308 -8.79394 -0.0268941 
2 7.03595 -12.452 -1.70227 
1 7.00221 -12.431 1.62114 
1 6.97095 -10.689 -0.0158317 
1 5.46392 -10.6702 -1.84532 
1 5.27694 -10.8139 1.74657 
1 7.10328 -8.84014 -1.82952 
2 7.08724 -9.03822 1.72091 
1 5.27265 -8.83908 -0.223045 
1 8.83039 -12.3089 0.0609035 
1 8.88835 -10.5524 -1.80834 
1 10.7148 -8.90383 -1.83797 
1 10.879 -8.87421 2.01571 
2 9.01079 -9.0592 0.0791912 
1 9.02923 -10.7732 1.95402 
1 -12.6655 -7.03473 -1.5849 
1 -12.6145 -5.25798 0.112352 
2 -10.9099 -7.05998 0.141438 
1 -10.805 -5.35528 -1.6802 
1 -10.9174 -5.13299 1.76689 
1 -8.93871 -6.98397 -1.719 
1 -9.11377 -6.96257 1.7425 
1 -8.97565 -5.37266 0.0407106 
1 -7.10248 -7.05305 -0.089057 
1 -7.11445 -5.28563 -1.82394 
1 -5.23664 -7.11167 -1.84743 
2 -7.12732 -5.33976 1.7191 
1 -5.21595 -7.19942 1.80879 
1 -5.33295 -5.3868 -0.0692618 
1 -3.45828 -7.04397 -0.07726 
1 -1.67719 -7.14312 -1.87939 
1 -1.79098 -7.04156 1.6695 
1 -3.51338 -5.38195 -1.85314 
1 -3.57684 -5.38248 1.75902 
2 -1.80657 -5.27036 -0.157114 
1 0.0302709 -7.13859 -0.0901159 
1 -0.0360648 -5.33624 -1.92209 
1 0.0342635 -5.39741 1.72681 
1 3.69204 -7.17345 -0.148106 
2 1.82668 -7.13882 -1.74722 
1 1.82991 -7.14166 1.74227 
2 3.58501 -5.27262 -1.79265 
1 3.61351 -5.46574 1.6191 
1 1.82726 -5.39881 0.0555523 
1 7.1483 -7.20004 -0.0908428 
1 5.41041 -7.00977 -1.95727 
1 7.12261 -5.30467 -1.74622 
1 5.2392 -7.18677 1.62953 
2 7.19461 -5.30008 1.75419 
1 5.39544 -5.38233 -0.11956 
1 10.7159 -7.1905 0.0591525 
1 10.5315 -5.30291 1.57602 
1 10.5606 -5.39196 -1.73337 
1 9.00357 -7.16265 -1.77927 
1 8.84198 -7.06654 1.65786 
1 8.90962 -5.34279 -0.126634 
2 12.372 -5.27869 -0.078898 
1 12.4564 -6.99469 -1.80477 
1 12.4615 -7.10995 1.57731 
1 -14.1862 -3.46478 0.107266 
2 -14.3097 -1.59013 -1.52641 
1 -14.2256 -1.76662 1.81611 
1 -14.2052 0.133423 0.169156 
1 -12.5818 -3.48344 -1.63949 
1 -12.4149 -1.79864 0.0847112 
1 -12.484 -3.52993 1.87537 
1 -10.6414 -3.49033 -0.0400718 
1 -10.648 -1.66561 -1.65105 
1 -10.8167 -1.80473 1.84579 
1 -8.86822 -3.60439 -1.67293 
2 -9.05185 -3.4716 1.74097 
1 -8.92796 -1.73186 0.046643 
1 -7.14319 -3.6443 -0.144751 
1 -7.1406 -1.73062 -1.69236 
1 -7.17698 -1.79497 1.84276 
1 -5.24979 -3.59608 -1.82114 
2 -5.3841 -3.54727 1.72503 
2 -5.35315 -1.78519 -0.0646076 
1 -3.49691 -3.53655 -0.0356347 
1 -3.58068 -1.82683 -1.85033 
2 -1.77756 -3.50418 -1.90927 
2 -3.44704 -1.83679 1.83147 
1 -1.70955 -3.63673 1.82008 
1 -1.76635 -1.87404 -0.0166807 
1 -0.0891309 -1.67246 -1.80309 
1 -0.062006 -0.114634 -0.0710821 
1 0.114115 -1.81325 1.78299 
1 0.0676457 -3.52229 0.071844 
2 3.68191 -3.43617 0.034729 
2 1.61862 -3.43145 -1.72465 
1 3.57468 -1.70927 -1.8704 
1 1.75872 -3.58862 1.87443 
1 3.59052 -1.74271 1.77685 
1 1.71815 -1.62627 -0.131431 
2 1.60949 0.000497318 1.6802 
1 1.72335 -0.0494125 -1.88373 
1 7.08719 -3.43094 -0.0759441 
1 7.19918 -1.70137 -1.96609 
1 7.10923 -1.64457 1.85187 
1 5.40269 -3.56916 -1.8784 
1 5.4169 -3.48114 1.70459 
2 5.55028 -1.69672 -0.0855116 
1 10.5706 -3.38151 0.00297402 
1 10.6779 -1.67826 1.69481 
1 10.4874 -1.68099 -1.82103 
1 8.91045 -3.42809 -1.82497 
1 8.89079 -3.51982 1.70382 
2 8.84654 -1.61319 -0.00597052 
1 11.9957 -3.36291 -1.75554 
2 12.46 -3.51702 1.5928 
1 12.4022 -1.74904 -0.0315861 
2 14.1255 -3.53955 -0.448827 
1 14.7842 -1.28957 -1.34566 
1 14.5357 -2.01322 1.38462 
2 -5.34648 -12.4075 3.70459 
2 -3.48889 -13.8655 2.94891 
1 -0.0934052 -14.1826 3.39145 
2 -3.26744 -12.4092 5.25957 
2 -0.0807616 -12.4972 5.22672 
1 3.26092 -14.1385 3.21849 
1 3.16214 -12.6083 5.18263 
1 -10.7741 -10.7079 3.5437 
1 -10.599 -8.7329 5.24717 
2 -8.87609 -8.75348 3.45153 
2 -8.74681 -10.6691 5.12857 
1 -7.08404 -10.6412 3.40187 
1 -5.38641 -10.8114 5.49858 
1 -7.18659 -8.88563 5.31383 
2 -5.39597 -8.92415 3.68061 
1 -1.7028 -12.3645 3.38166 
1 -1.68567 -10.5809 5.20109 
1 -3.48205 -10.7323 3.42326 
2 -3.55989 -9.08098 5.42666 
1 -1.73309 -8.74436 3.48418 
1 0.0600946 -8.77003 5.21081 
1 -0.0760355 -10.5062 3.51198 
1 1.55457 -12.281 3.40294 
1 1.69011 -10.5533 5.23354 
2 3.49165 -10.7322 3.42625 
1 3.49455 -8.9485 5.31755 
1 1.77294 -8.87771 3.41011 
1 5.2449 -12.6905 3.62449 
1 7.0606 -10.9567 3.69868 
1 5.15257 -10.7735 5.41838 
2 6.94111 -8.93901 5.34816 
2 5.28201 -8.9553 3.52033 
1 7.05075 -10.7876 6.99072 
1 8.87997 -10.7464 5.35684 
2 8.83799 -8.90894 3.55634 
2 10.5444 -8.79938 5.42645 
1 -12.6644 -5.35582 3.53726 
1 -10.8947 -6.94178 3.51719 
1 -10.8179 -5.41121 5.37866 
1 -8.89285 -7.09203 5.16778 
1 -9.03605 -5.36154 3.65785 
1 -7.2228 -6.99275 3.48568 
1 -7.16688 -5.45422 5.40861 
1 -5.19681 -7.10848 5.4401 
2 -5.30093 -5.3807 3.64436 
1 -1.8543 -7.11325 5.39845 
1 -3.51141 -7.13016 3.55916 
1 -3.64505 -5.42644 5.41657 
2 -1.83014 -5.39146 3.46756 
2 0.0365752 -5.38813 5.41992 
1 -0.0875226 -7.19727 3.46151 
1 1.81584 -7.22556 5.22468 
1 3.52138 -7.20878 3.5244 
1 3.54645 -5.49318 5.44854 
1 1.83627 -5.46376 3.62205 
1 6.99866 -7.15749 3.44954 
1 5.2486 -7.03371 5.21694 
2 7.05004 -5.26697 5.20095 
2 5.18046 -5.25769 3.40208 
1 10.6188 -7.02538 3.43595 
1 10.6599 -5.42855 5.30016 
1 8.73461 -7.14034 5.31293 
1 8.9364 -5.44355 3.61512 
2 12.4572 -5.35689 3.39676 
1 -14.0861 -3.37731 3.81285 
1 -12.3785 -1.74385 3.67272 
1 -12.3895 -3.45857 5.48812 
1 -10.6644 -1.67896 5.37197 
1 -10.7528 -3.50551 3.70517 
1 -9.03941 -3.62048 5.48142 
2 -9.06363 -1.66703 3.71259 
1 -7.15581 -1.73197 5.53284 
2 -7.26407 -3.51711 3.7724 
1 -5.41558 -3.55344 5.40645 
1 -5.46084 -1.72154 3.6298 
2 -3.61737 -1.73068 5.43162 
2 -1.88106 -3.57016 5.33076 
1 -3.64275 -3.5678 3.69414 
1 -1.63605 -1.72648 3.49908 
1 -0.00126657 -1.8246 5.25547 
1 0.051559 -3.47103 3.57076 
1 1.91575 -3.57531 5.22583 
1 3.61117 -1.70677 5.26494 
1 3.43065 -3.56346 3.50273 
1 1.8907 -1.85728 3.56477 
1 1.70742 -0.0136475 5.38023 
1 7.10718 -1.80173 5.25875 
1 7.07462 -3.48587 3.45616 
1 5.22385 -3.48686 5.17691 
1 5.26161 -1.80142 3.51112 
1 5.37483 0.000425138 5.23484 
2 10.8279 -1.73938 5.34444 
1 10.5913 -3.68809 3.46453 
2 8.98479 -3.51351 5.2694 
1 8.93119 -1.62535 3.48667 
2 12.4911 -1.71908 3.50582 
1 12.558 -3.67078 5.44349 
1 14.1927 -3.45257 3.47866 
1 14.1501 -1.81334 5.33146 
1 -1.65348 -12.434 7.09758 
1 1.44806 -12.2114 7.20262 
1 -8.79434 -8.97097 7.0977 
1 -5.15436 -9.13946 10.5291 
1 -5.23903 -10.7556 8.66435 
1 -7.06116 -10.6266 7.08337 
2 -7.05845 -8.91176 8.95706 
1 -5.3845 -8.89755 7.05289 
2 -1.88816 -8.78328 10.6513 
1 -1.71413 -10.5481 8.84761 
1 -3.33464 -10.7907 7.08817 
1 -3.58896 -8.84376 8.78161 
1 -1.7662 -8.8361 7.0978 
1 -0.0963874 -10.5051 6.92826 
1 -0.0982205 -8.85569 8.84987 
1 1.64528 -10.5625 8.89953 
1 3.41145 -10.76 7.23947 
1 3.39301 -9.01634 8.95091 
1 1.74873 -8.82795 7.14799 
1 1.78652 -8.91371 10.7621 
1 5.20565 -8.89739 10.607 
1 5.16436 -10.5685 8.77247 
1 6.94583 -8.9318 8.72677 
1 5.21831 -8.8523 7.06603 
1 8.87955 -8.88645 7.24663 
1 -10.559 -5.46032 9.22631 
2 -10.3338 -7.0588 7.10348 
1 -8.75132 -7.18754 9.07636 
1 -8.69342 -5.39396 7.18141 
1 -8.6527 -5.55471 10.7736 
1 -5.41901 -5.31362 10.9791 
1 -6.67773 -7.18144 10.9839 
1 -7.06851 -5.48971 8.97329 
1 -5.39482 -7.2467 8.88392 
1 -7.04051 -7.14703 7.06246 
1 -5.42704 -5.33703 7.09259 
2 -3.75296 -7.18557 10.7238 
1 -1.89654 -5.34825 10.8212 
1 -1.8298 -7.08394 8.888 
2 -3.76839 -5.42529 8.9889 
1 -3.61253 -7.00207 7.14323 
1 -1.89197 -5.46807 7.17081 
1 -0.123904 -7.10087 10.7256 
2 -0.116548 -5.33789 9.05949 
1 -0.0453912 -7.0895 7.1866 
1 3.51755 -7.13366 10.7841 
1 1.78909 -5.21765 10.5902 
1 1.73776 -7.19236 9.16444 
1 3.69745 -5.39682 9.11115 
1 3.56503 -7.17072 7.15443 
2 1.87234 -5.39827 7.37814 
1 7.10867 -7.19024 10.5061 
1 5.44456 -5.38715 10.8274 
1 5.20847 -7.13984 8.9474 
1 7.08956 -5.31051 8.93131 
1 7.0144 -7.09309 7.09161 
2 5.34015 -5.35517 7.11262 
1 8.69588 -5.16564 10.6547 
1 10.5145 -5.24801 8.82058 
1 10.5117 -6.9981 7.17079 
1 8.84209 -7.07018 8.83248 
1 8.88646 -5.29723 7.0587 
2 -11.9783 -1.70521 7.45213 
1 -8.99956 -1.66722 10.736 
1 -10.9204 -2.98068 9.66553 
2 -10.6419 -3.94166 7.25551 
1 -8.68952 -3.66325 9.10241 
2 -9.10902 -1.78494 7.42515 
1 -11.1211 -0.509343 9.52378 
1 -7.1051 -3.60164 10.9781 
1 -5.35994 -1.672 10.7715 
1 -7.23062 -1.71854 9.11832 
2 -5.49239 -3.47332 9.04195 
1 -7.20371 -3.47089 7.18184 
1 -5.33499 -1.74658 7.30108 
1 -5.44689 0.0137696 9.06689 
1 -3.6251 -3.41947 10.8912 
1 -1.76453 -1.7074 10.6424 
1 -3.54866 -1.72026 9.10369 
2 -1.87718 -3.50877 8.98169 
1 -3.65106 -3.62154 7.11092 
1 -1.85158 -1.88884 7.18333 
1 -3.63296 -0.0753211 10.7671 
1 -1.7844 0.0969068 9.1204 
1 -0.0148566 0.0236861 10.7673 
2 0.115617 -3.47227 7.17301 
1 -0.0746571 -1.82687 8.94267 
1 0.0241909 -3.34047 10.6321 
1 1.80647 -1.79171 7.07062 
2 3.62674 -3.52147 7.13558 
1 1.82609 -1.69823 10.6909 
1 1.91028 -3.36529 9.07581 
1 3.56118 -1.65918 8.92792 
1 3.63895 -3.37365 10.5911 
1 3.46269 0.0172117 10.948 
1 3.55059 -0.000699352 7.11248 
1 1.79682 -0.0229544 9.03576 
1 7.17077 -0.0579065 10.6973 
1 7.0095 -3.61361 7.07501 
1 5.32842 -1.64088 10.8843 
1 5.45197 -3.42164 8.88348 
1 7.07973 -1.65421 8.87077 
1 7.10041 -3.4521 10.7179 
1 5.34086 -1.73592 7.08674 
1 7.1333 -0.0338927 6.98411 
1 5.30108 -0.0780859 8.9422 
1 8.86346 -1.72587 6.96729 
2 10.6431 -1.89185 8.81651 
1 10.6732 -3.71337 7.03213 
1 8.68952 -3.50456 8.8259 
1 8.94365 -1.75014 10.6647 
2 9.13564 0.0689208 8.94916 
2 10.8189 0.26981 6.99846 
2 12.5044 -1.6129 7.16574 
1 -0.149643 -8.70472 12.7129 
1 -0.00626049 -6.45667 14.1721 
1 0.0483868 -5.19415 12.1762 
1 -3.67901 -5.25998 12.4616 
1 -1.7611 -6.95238 12.667 
1 3.53418 -5.19495 12.351 
1 1.99582 -5.21164 14.1853 
2 1.64696 -7.07656 12.3755 
1 -5.29722 -0.111058 12.7515 
1 -7.08653 -1.78622 12.5251 
1 -5.25807 -3.45756 12.598 
1 -1.75893 -0.0444163 12.3547 
2 0.0433841 -3.64432 14.0164 
1 -1.6185 -1.88983 14.2465 
1 -1.75778 -3.53003 12.4327 
1 -3.53029 -1.72005 12.5766 
1 -3.30978 -0.139645 14.402 
1 1.64892 -0.055739 12.4813 
1 3.51307 -1.91125 12.6085 
1 1.87916 -3.52315 12.4297 
1 1.62177 -1.82169 14.1959 
1 -0.0892664 0.0476495 14.2864 
1 3.1867 -0.103597 14.4276 
1 0.0454987 -1.81692 12.2823 
2 5.32386 -3.52293 12.4686 
1 7.12219 -1.83912 12.3844 
1 5.25768 -0.0264586 12.7591 
1 -7.28129 1.66588 -12.2737 
1 -5.55449 3.41511 -12.5268 
1 -5.58151 -0.0430189 -12.6817 
2 -1.82782 1.79015 -14.2669 
2 -3.69991 1.9679 -12.5588 
1 -2.05209 3.61132 -12.4986 
2 -0.0514584 1.8773 -12.3438 
1 -0.26868 3.71437 -14.3062 
1 -3.55587 0.159972 -14.3863 
2 -1.87916 0.0607711 -12.3897 
2 -0.0197256 0.00730082 -14.4742 
1 3.48954 3.23696 -14.3928 
1 3.54995 1.79412 -12.5213 
2 1.71757 3.60606 -12.5493 
1 1.57027 1.96366 -14.3701 
1 5.32974 1.73356 -14.1326 
1 7.04845 1.80161 -12.4548 
1 5.21198 3.59283 -12.7372 
2 5.34065 0.0423429 -12.3062 
1 -1.74931 7.15853 -12.5468 
1 -3.68006 5.39244 -12.6546 
1 -0.228165 5.33447 -12.4983 
1 1.56507 7.09124 -12.4273 
1 3.41835 5.31387 -12.5602 
1 -12.3796 1.73962 -7.44355 
1 -11.2539 2.97983 -9.29709 
1 -9.20621 1.78541 -10.6778 
2 -8.94797 3.66248 -9.02528 
2 -9.35612 1.87822 -7.33326 
1 -11.0083 3.98015 -7.1186 
1 -11.1571 0.578954 -9.37395 
1 -7.2415 3.53937 -10.7325 
2 -5.46357 1.6494 -10.6008 
2 -7.29628 1.73917 -8.93528 
1 -5.50929 3.5688 -8.84418 
1 -7.2122 3.6709 -7.13501 
2 -5.37881 1.68486 -7.15741 
1 -3.71189 3.4606 -10.7267 
1 -1.89722 1.89716 -10.6836 
1 -3.66301 1.59039 -9.04899 
2 -1.8952 3.40185 -8.95064 
2 -3.69342 3.5916 -7.12062 
1 -1.9897 1.6879 -7.1457 
1 -0.0294885 1.89791 -8.96942 
1 -0.0540572 3.60096 -7.02482 
1 -0.17556 3.63527 -10.8325 
1 -3.85084 -0.109253 -10.7974 
1 3.56984 3.47919 -10.8195 
1 1.74994 1.96075 -10.6442 
1 3.58785 1.84391 -8.96387 
2 1.80761 3.66131 -8.90366 
1 3.56614 3.62724 -7.01726 
2 1.76772 1.71071 -7.11723 
2 6.88778 3.69915 -10.6861 
1 5.26995 1.90877 -10.7195 
1 7.16184 1.94445 -8.81382 
1 5.2024 3.58016 -8.82235 
1 7.05486 3.63088 -7.22162 
1 5.23736 1.90322 -7.13709 
2 7.43868 0.123931 -10.66 
2 7.12559 0.0122942 -7.04858 
1 9.04352 2.06358 -10.6259 
2 10.696 1.92476 -8.95502 
1 8.74972 3.69048 -8.83025 
1 8.91232 1.79193 -7.10785 
1 10.7149 3.70815 -7.11196 
1 10.3713 0.13102 -10.6091 
1 8.92871 0.0311457 -8.83439 
2 12.369 1.81562 -7.08648 
1 -10.6715 5.34674 -9.09157 
1 -10.7122 6.94773 -7.21667 
1 -8.99578 7.3077 -8.98802 
1 -8.97035 5.34625 -7.16964 
1 -8.84849 5.39232 -10.7364 
2 -5.4892 5.28574 -10.8404 
1 -7.07932 7.29671 -10.8562 
1 -7.18104 5.38937 -8.99487 
1 -5.47156 7.14154 -8.9244 
2 -7.16456 7.2328 -7.16954 
1 -5.33653 5.4177 -7.15514 
2 -3.73196 7.18099 -10.6846 
1 -2.02063 5.40071 -10.8856 
1 -1.81471 7.15791 -8.83846 
2 -3.69468 5.29343 -8.89293 
1 -3.5721 7.04986 -7.15076 
1 -1.67942 5.33188 -7.07073 
2 -0.164943 5.28982 -8.92811 
1 -0.124991 6.9926 -10.76 
1 -0.0412054 7.12699 -7.17065 
1 3.40636 7.19323 -10.6857 
1 1.73489 5.29244 -10.7652 
2 1.6188 7.10758 -8.98097 
1 3.45402 5.39537 -9.00702 
1 3.43048 7.15246 -7.14104 
1 1.6951 5.30885 -7.11852 
1 6.95625 6.8968 -10.8248 
1 5.09459 5.35336 -10.6698 
1 6.84571 5.39555 -8.91376 
1 5.18041 7.0552 -8.87152 
1 7.06333 7.08605 -7.11955 
1 5.19647 5.37258 -7.13838 
1 8.82047 5.21578 -10.8042 
1 10.5837 5.18363 -8.88989 
1 8.88548 7.00759 -9.03496 
1 8.74411 5.38708 -7.17256 
2 10.498 6.98564 -7.13151 
1 -9.06577 8.94571 -7.09281 
1 -5.40715 9.05821 -10.5331 
1 -5.16272 10.6649 -8.74848 
1 -7.135 9.13021 -8.97137 
1 -5.33768 8.83544 -7.1411 
1 -7.08066 10.6073 -7.02054 
2 -1.70695 8.91638 -10.6054 
2 -1.81674 10.6879 -8.84832 
1 -3.50907 10.6746 -7.09625 
1 -3.55629 8.79633 -8.86874 
1 -1.76564 8.80506 -7.16985 
1 -0.00269691 8.94342 -8.82008 
1 -0.0373099 12.3826 -9.07203 
1 -0.0824627 10.7034 -7.069 
1 1.33762 9.11954 -10.7615 
1 1.78496 10.6238 -8.99236 
1 3.54467 10.7578 -7.20941 
1 3.40761 8.81486 -8.81245 
1 1.64369 9.01711 -7.09537 
2 1.59736 12.4419 -7.25364 
1 5.21519 8.76996 -10.6401 
1 5.1266 10.49 -8.91646 
1 7.15279 10.5091 -7.39138 
1 7.03241 8.63499 -8.98705 
1 5.28815 8.90437 -7.15721 
1 8.91491 8.74252 -7.22633 
1 -1.77445 12.4132 -7.09869 
2 -14.0441 3.41446 -3.42979 
1 -14.1014 0.209675 -3.48187 
1 -12.6057 0.164904 -5.45245 
2 -12.5938 3.61004 -5.35147 
1 -12.3147 1.74779 -3.56188 
2 -10.8721 1.84865 -5.40843 
1 -10.851 3.7496 -3.51953 
1 -9.11088 3.71557 -5.42563 
2 -9.04505 1.91948 -3.52042 
1 -10.6252 -0.0466688 -3.55534 
1 -7.21015 1.78763 -5.50994 
2 -7.10447 3.61487 -3.61118 
1 -5.3643 3.60261 -5.39504 
1 -5.396 1.80453 -3.67816 
2 -7.06586 0.0600255 -3.55586 
1 -5.32951 -0.174556 -5.37044 
1 -3.75365 1.56885 -5.30742 
1 -1.86952 3.54702 -5.35346 
1 -3.60178 3.50705 -3.6813 
1 -1.84575 1.76832 -3.66879 
1 -0.127127 1.778 -5.42662 
1 -0.0704927 0.0487896 -3.65621 
1 -0.0314648 3.55676 -3.67858 
1 -3.59253 -0.000219808 -3.55509 
1 3.59209 1.85368 -5.27443 
2 1.83244 3.66263 -5.29703 
1 3.73816 3.72822 -3.55254 
2 1.72812 1.77879 -3.67209 
1 3.5394 0.0142411 -3.55877 
1 7.01817 1.88782 -5.34018 
1 6.9381 3.63827 -3.73444 
1 5.32563 3.67957 -5.4166 
1 5.25976 1.80517 -3.47728 
1 10.6576 1.78688 -5.28501 
1 10.6183 3.59226 -3.62809 
2 8.8305 3.59823 -5.44177 
1 8.88089 1.8714 -3.66305 
1 12.7067 1.80107 -3.75977 
1 8.9117 0.086724 -5.3189 
1 12.4921 3.6648 -5.46346 
1 14.2546 3.36843 -3.38346 
1 -12.6534 5.37797 -3.54338 
1 -10.8117 7.16777 -3.37876 
1 -10.8851 5.4785 -5.28559 
2 -8.93345 7.06218 -5.3228 
1 -8.87899 5.39369 -3.55243 
1 -7.00282 7.04055 -3.54147 
1 -7.18126 5.34086 -5.46892 
1 -5.33376 6.99347 -5.31694 
1 -5.25247 5.39751 -3.5492 
1 -1.84228 7.1092 -5.451 
1 -3.50784 7.13726 -3.59343 
1 -3.51941 5.32358 -5.23279 
1 -1.81308 5.39188 -3.65377 
2 0.0662152 7.12458 -3.52795 
1 0.0694509 5.41329 -5.35943 
1 1.69633 7.23066 -5.40054 
2 3.52981 7.25219 -3.70874 
1 3.44541 5.47726 -5.406 
1 1.74441 5.50217 -3.58049 
1 7.07008 7.10957 -3.59831 
1 7.03004 5.26828 -5.38256 
2 5.33802 7.21008 -5.43975 
1 5.33856 5.43207 -3.68322 
1 10.6678 7.09826 -3.53981 
1 10.7233 5.43551 -5.33835 
1 8.80023 7.14271 -5.2456 
1 8.84363 5.3551 -3.72541 
2 12.4688 5.34132 -3.55578 
1 -10.7726 8.70091 -5.25135 
1 -8.83365 10.358 -5.15719 
1 -8.89732 8.80163 -3.47563 
1 -10.6468 10.3767 -3.29045 
1 -7.05677 10.6071 -3.53897 
1 -5.27295 10.788 -5.27039 
1 -6.99729 8.87493 -5.30674 
1 -5.27621 8.99681 -3.55373 
1 -1.82034 10.7498 -5.34697 
1 -3.48725 10.7624 -3.47333 
2 -3.55892 8.89548 -5.32314 
1 -1.77917 8.82163 -3.58595 
1 -0.0533089 8.96483 -5.32187 
1 0.0338519 10.8098 -3.56837 
2 1.74559 10.8942 -5.29576 
1 3.54402 10.8639 -3.67954 
1 3.46387 8.98213 -5.54219 
1 1.92276 9.04198 -3.49982 
1 7.2493 10.8475 -3.57574 
2 5.48042 10.7663 -5.45246 
1 7.18162 8.81473 -5.46093 
2 5.29544 9.15924 -3.60571 
1 10.5635 8.79761 -5.29135 
1 8.86183 10.5442 -5.55882 
1 8.90222 8.87993 -3.46427 
1 -5.36346 12.5273 -3.46384 
1 -1.8402 12.5963 -3.59366 
1 -3.57294 12.5018 -5.37215 
1 -3.45645 14.3699 -3.44878 
1 -0.0252653 14.245 -3.6954 
1 -0.0944879 12.5817 -5.3505 
1 1.76571 12.5119 -3.53713 
1 3.70941 12.517 -5.54993 
2 1.80525 14.0106 -5.38116 
1 3.55112 14.1507 -3.67688 
1 5.52086 12.6343 -3.66214 
1 -14.3858 3.33277 0.0894152 
1 -14.0766 1.78297 -1.63012 
1 -14.4371 1.75197 1.94572 
1 -12.5754 3.77806 -1.56093 
1 -12.2919 0.0720948 -1.69718 
2 -12.6107 3.45678 1.87644 
2 -8.95611 0.0960823 1.87868 
1 -12.4923 1.77445 0.107616 
2 -10.7235 3.57668 -0.0413946 
1 -10.7663 1.73453 -1.77486 
1 -10.6203 1.89502 1.8872 
1 -8.88064 3.53268 -1.76866 
1 -8.89809 3.60384 1.8498 
1 -8.91129 1.87234 -0.0268489 
1 -8.9409 0.0466481 -1.74334 
2 -12.3567 -0.00823073 1.88609 
1 -10.6748 0.0593283 0.0993981 
1 -5.29991 0.0264306 -1.66383 
1 -7.11038 3.61317 0.107786 
1 -7.06713 1.91975 -1.7081 
1 -7.11345 1.75097 1.85305 
1 -5.28576 3.61663 -1.87265 
1 -5.29632 3.57067 1.73859 
1 -5.27443 1.79516 0.0687387 
2 -5.34145 0.00216285 1.85262 
1 -7.13033 0.106488 0.0774804 
2 -3.62551 3.55023 -0.107029 
1 -3.60011 1.84967 -1.87418 
2 -1.74212 3.52507 -1.91131 
1 -3.63111 1.77104 1.85026 
1 -1.91676 3.49371 1.88685 
1 -1.84495 1.80599 0.00529968 
1 -3.4996 0.0630591 0.0563962 
1 -0.152176 1.92663 1.72766 
1 -1.82306 0.0342376 -1.81328 
1 0.0302677 3.65083 0.0148379 
1 -1.81255 0.0788785 1.71621 
1 -0.0732098 1.75356 -1.87042 
2 3.51736 3.63809 -0.0648539 
1 3.49321 1.86112 -1.94528 
2 1.64864 3.73742 -1.90317 
1 3.50705 1.91399 1.89937 
1 1.72043 3.59036 1.9191 
2 1.66241 1.75583 -0.167504 
2 3.58244 0.102659 -0.0231718 
1 5.23294 0.142827 1.83565 
1 7.1409 0.192684 0.0286482 
1 7.10076 3.59218 -0.0636034 
1 7.0723 1.93432 -1.94304 
1 7.03468 1.94832 1.83956 
1 5.26807 3.65311 -1.85603 
1 5.23499 3.55805 1.91175 
2 5.41955 1.83039 -0.061228 
1 5.29497 -0.0196454 -1.90361 
2 8.9747 0.304348 1.7589 
1 10.7122 3.54057 -0.0360754 
1 10.7114 1.96996 1.62099 
2 10.7312 1.94648 -1.90343 
1 8.83788 3.64265 -2.0182 
1 8.78044 3.68945 1.72315 
1 8.94788 1.95239 -0.150336 
1 12.4673 1.84463 -0.134951 
1 8.95867 0.243534 -1.93179 
1 12.4703 3.53273 -1.88412 
1 10.6452 0.111998 0.017122 
1 12.3181 0.0964337 1.61474 
1 12.4078 3.69317 1.64473 
2 12.5429 -0.060072 -1.7318 
1 14.329 3.61254 -0.418278 
2 14.4101 1.50874 -1.64711 
1 14.2656 2.07004 1.74346 
1 14.3483 0.193958 0.393701 
1 -12.5742 5.42768 0.327414 
1 -12.6096 6.87266 -1.4501 
1 -12.2891 7.17073 1.84707 
1 -10.6402 6.89399 -0.116045 
1 -10.6471 5.23135 -1.8061 
1 -10.5661 5.29971 1.68156 
1 -8.91889 7.065 -1.8002 
2 -9.17214 7.12509 1.72608 
1 -8.91408 5.32613 -0.113408 
1 -7.06834 7.10081 -0.0193027 
1 -7.12868 5.30974 -1.76555 
2 -5.22447 7.17778 -1.78955 
1 -7.23819 5.33035 1.74857 
1 -5.3822 7.1033 1.68819 
1 -5.20507 5.38583 -0.097199 
1 -3.66998 7.091 0.0623927 
1 -1.81585 7.08577 -1.66681 
1 -1.83788 7.02616 1.76903 
1 -3.56434 5.3585 -1.91053 
1 -3.64996 5.20966 1.8916 
2 -1.90735 5.28187 0.0895271 
1 -0.0937799 5.44312 -1.762 
1 -0.054087 7.15622 -0.0720967 
1 0.0440985 5.3521 1.81802 
1 3.54858 7.16331 -0.0071942 
1 1.82153 7.11926 -1.72041 
2 1.75083 7.0661 1.82677 
1 3.51144 5.43399 -1.85381 
2 3.60268 5.31664 1.98745 
1 1.73475 5.4658 0.129516 
1 7.12705 7.08855 0.0126052 
1 7.10462 5.27929 -1.98127 
2 5.33058 7.10273 -1.87624 
1 6.98336 5.20442 1.73729 
1 5.33399 7.06003 1.81006 
1 5.37906 5.40194 -0.0793854 
1 10.5019 7.00745 -0.223527 
1 10.5892 5.36833 1.60357 
1 10.5849 5.31415 -1.81479 
1 8.83641 7.04161 -1.89589 
2 9.04056 7.19844 1.69978 
1 8.89472 5.3558 -0.103649 
2 12.0184 7.19584 1.73922 
1 12.466 7.001 -1.69414 
1 12.6301 5.30599 -0.13138 
2 -8.70282 10.6445 -1.70003 
1 -8.91832 10.5634 1.53562 
2 -10.7226 8.8403 -1.48092 
1 -10.6746 9.11558 1.43172 
1 -8.7277 8.79402 -0.0854818 
1 -7.00537 10.6072 -0.0123803 
1 -5.3322 10.6999 1.78287 
1 -5.33711 10.69 -1.78857 
1 -7.0205 8.81614 -1.80347 
1 -7.1615 8.84229 1.66276 
1 -5.21463 8.90922 -0.0609142 
2 -5.21712 12.4073 -0.00927963 
1 -3.44048 10.7489 0.0147831 
2 -1.76138 10.6876 1.87842 
1 -1.7363 10.7998 -1.85063 
1 -3.40696 8.92125 -1.74334 
2 -3.52275 8.89684 1.80527 
1 -1.70082 8.9383 -0.00320033 
1 -0.0143643 10.7266 -0.0731765 
1 -0.0277779 12.5588 -1.75993 
2 0.00744032 8.98128 -1.84358 
1 -0.0796628 8.80703 1.8084 
1 3.50053 10.6674 0.0885685 
1 1.81764 10.764 1.8046 
1 1.85312 10.6435 -1.84668 
1 3.4975 8.91256 -1.72715 
1 3.56536 8.8011 1.94448 
1 1.71774 8.90021 0.0184479 
2 1.77913 12.4791 -0.0366358 
1 0.195722 12.3505 1.88621 
1 3.4529 12.5913 1.85649 
1 7.1097 10.6429 0.0240851 
1 5.15834 10.8098 1.80867 
2 5.33131 10.8406 -1.64699 
1 7.11639 8.90041 -1.90682 
1 6.91144 8.91776 1.85115 
2 5.24623 8.83663 0.102077 
2 7.00718 12.384 1.68903 
1 10.8544 8.84276 -1.74491 