ITEM: TIMESTEP
1440000
ITEM: NUMBER OF ATOMS
1289
ITEM: BOX BOUNDS pp pp pp
-100 100
-100 100
-100 100
ITEM: ATOMS type x y z 
1 -1.78959 -6.97049 -12.4873 
1 -3.65149 -5.19412 -12.4552 
1 0.0752738 -5.3705 -12.6036 
1 1.5177 -7.16772 -12.4223 
1 3.56597 -5.49121 -12.5003 
1 -7.3778 -1.76951 -12.139 
2 -5.616 -3.45437 -12.3255 
1 -5.49933 -0.11252 -12.46 
2 -1.68606 -1.78543 -14.1469 
2 -3.74596 -1.85866 -12.2585 
1 -1.90573 -3.64038 -12.4745 
1 -0.0191938 -1.77397 -12.5356 
1 0.0741235 -3.66608 -14.2768 
2 3.39976 -3.62753 -14.0893 
1 1.81233 -3.64874 -12.4449 
1 3.55935 -1.85686 -12.4272 
1 1.78647 -1.88122 -14.3165 
2 1.67086 -0.0708538 -12.4356 
1 4.92591 -1.79459 -14.5249 
2 6.92895 -1.89132 -12.6685 
2 5.26417 -3.78418 -12.499 
1 -1.90346 -12.7536 -7.05032 
1 1.74565 -12.6115 -6.98987 
1 -8.93009 -9.25808 -7.04587 
2 -5.44822 -10.6855 -8.98123 
1 -5.36815 -8.94295 -10.7695 
1 -7.17821 -8.94758 -8.88909 
1 -5.24041 -8.99691 -7.08505 
1 -7.09237 -10.8328 -7.17915 
1 -1.78743 -10.9888 -8.84687 
1 -1.62502 -9.02488 -10.8186 
1 -3.69055 -11.0181 -7.20124 
2 -3.51571 -9.15318 -9.07397 
1 -2.05598 -9.06133 -7.07176 
1 0.111291 -10.7222 -10.4853 
1 -0.269935 -8.97822 -8.91844 
2 -0.110189 -10.8251 -7.0546 
1 1.85913 -8.99026 -10.6228 
2 1.71671 -10.8067 -8.82099 
1 3.50091 -10.592 -7.1066 
2 3.53539 -8.83353 -8.87471 
1 1.59209 -8.89474 -7.16109 
1 5.23203 -10.7214 -8.64653 
1 7.20053 -8.98574 -8.86332 
1 5.44779 -9.02117 -7.04951 
1 7.14346 -10.6877 -7.06273 
1 5.54396 -9.0268 -10.5683 
1 8.94847 -8.81414 -7.10452 
1 -10.7398 -5.43933 -8.73267 
1 -9.01217 -5.5793 -10.5728 
1 -9.09569 -7.25913 -8.80522 
2 -9.04178 -5.26926 -7.10634 
2 -10.6794 -7.26345 -6.93327 
1 -7.26842 -7.1482 -10.5261 
1 -5.63485 -5.40575 -10.792 
1 -7.23421 -5.36782 -8.93029 
1 -5.42645 -7.29146 -8.9278 
2 -7.16904 -7.20694 -7.12395 
1 -5.50534 -5.44462 -7.18099 
2 -3.66029 -7.11217 -10.7324 
1 -1.90261 -5.41789 -10.7148 
1 -1.97803 -7.17269 -9.01129 
1 -3.89265 -5.37565 -8.87922 
1 -3.67964 -7.17078 -7.12809 
2 -2.07829 -5.35236 -7.16321 
2 -0.152775 -5.35057 -8.99787 
1 -0.0359811 -7.22429 -10.6104 
2 -0.287847 -7.25421 -7.10316 
2 3.57871 -7.20105 -10.7106 
1 1.72676 -5.3483 -10.6962 
1 1.65783 -7.07227 -8.90146 
1 3.59143 -5.36749 -8.93327 
1 3.55649 -7.19112 -7.11886 
2 1.77626 -5.16665 -7.21775 
1 7.17187 -7.13821 -10.5469 
1 5.32044 -5.38094 -10.6987 
1 5.33252 -7.20974 -8.82443 
1 6.94202 -5.29049 -8.91209 
1 7.11941 -7.15466 -7.11732 
1 5.29887 -5.42785 -7.17838 
1 8.76372 -5.134 -10.827 
1 10.6448 -4.98118 -8.95355 
1 10.7406 -6.99597 -7.07794 
2 8.85612 -6.93233 -8.84546 
1 8.95487 -5.0783 -7.05827 
1 -12.5859 -1.90622 -6.97769 
1 -10.922 -1.81493 -8.80994 
1 -9.14515 -1.76796 -10.5031 
1 -10.9409 -3.72318 -7.11331 
1 -9.00982 -3.65811 -8.93845 
1 -9.13966 -1.86143 -6.96699 
1 -10.8421 -0.124569 -7.01024 
1 -8.78933 -0.138845 -8.79678 
1 -7.35412 -3.57605 -10.5809 
1 -5.55211 -1.81628 -10.4804 
1 -7.37546 -1.93373 -8.67049 
1 -5.57734 -3.6455 -8.82967 
1 -7.20164 -3.68704 -7.06583 
1 -5.2965 -1.73726 -7.06352 
1 -7.10932 0.0512611 -7.03026 
1 -7.29786 0.00914948 -10.6372 
1 -5.49259 -0.113426 -8.84967 
1 -3.88303 -3.71275 -10.6243 
1 -1.91957 -1.92176 -10.7647 
1 -3.7134 -1.71389 -8.94626 
2 -2.04679 -3.62198 -8.97888 
1 -3.73405 -3.54388 -7.12559 
1 -1.9973 -1.88232 -7.12431 
1 -0.100896 -3.46918 -7.20432 
1 -0.184153 -1.82827 -8.92341 
1 -0.0932754 -3.55594 -10.8223 
1 -0.132176 -0.0339137 -10.68 
1 -3.62648 0.00528445 -7.1847 
1 -0.319018 -8.01344e-05 -7.1781 
1 3.52659 -3.66847 -10.7196 
1 1.70087 -1.79282 -10.661 
1 1.73695 -3.49797 -8.95896 
2 3.55319 -1.79463 -8.90916 
1 3.60974 -3.59646 -7.16746 
1 1.79823 -1.82796 -7.12571 
1 6.9304 -3.6087 -10.6989 
1 5.28269 -1.85151 -10.7602 
1 7.0573 -1.83477 -9.02324 
1 5.27872 -3.53853 -8.94056 
1 7.01986 -3.60512 -7.0916 
1 5.3745 -1.8052 -7.18701 
1 8.84779 -1.95968 -10.7342 
1 10.871 -3.59107 -7.04121 
1 8.66878 -3.59817 -8.92624 
2 8.85155 -1.88087 -7.1955 
2 10.6975 -1.87774 -8.8815 
1 12.5189 -1.53429 -7.31165 
1 10.3519 -0.14763 -10.6467 
1 -5.35994 -12.7687 -3.27266 
1 -1.86825 -14.1607 -5.10148 
1 -3.81095 -12.7777 -5.14946 
2 0.0937401 -14.2616 -3.43166 
1 3.6472 -12.7027 -5.44291 
1 -0.0357283 -12.6144 -5.35657 
2 1.87053 -12.4857 -3.73941 
1 5.29315 -12.4595 -3.51627 
1 -10.7413 -9.03703 -5.36846 
1 -8.70662 -10.7704 -5.1664 
2 -8.98442 -9.04222 -3.43772 
1 -6.99984 -10.7217 -3.45739 
1 -5.4307 -10.8681 -5.26497 
1 -7.07444 -9.02101 -5.34778 
1 -5.43014 -9.0273 -3.51301 
1 -1.98808 -12.5022 -3.39243 
2 -2.06096 -10.926 -5.3291 
1 -3.68799 -10.8938 -3.46437 
1 -3.82451 -8.93178 -5.28593 
2 -1.99197 -8.98757 -3.61489 
1 -0.0608118 -8.93744 -5.30055 
2 -0.0445903 -10.789 -3.68268 
1 1.85663 -10.7159 -5.42218 
1 3.59601 -10.6737 -3.74488 
1 3.58262 -9.03652 -5.39685 
1 1.72663 -8.97763 -3.60538 
2 7.14859 -10.7956 -3.51988 
1 5.25041 -10.851 -5.41123 
1 6.98427 -8.94087 -5.31066 
2 5.32067 -8.86537 -3.57831 
1 8.98563 -10.5883 -5.25671 
2 8.90633 -8.7429 -3.54743 
1 10.7717 -8.91202 -5.28244 
1 -12.6368 -5.46477 -3.31646 
1 -10.8666 -7.22487 -3.60805 
1 -10.9451 -5.49536 -5.35237 
2 -8.87501 -7.35455 -5.26892 
1 -8.93858 -5.40468 -3.57321 
1 -7.20492 -7.23962 -3.59452 
1 -7.13065 -5.36699 -5.25948 
1 -5.42788 -7.17219 -5.43113 
1 -5.40233 -5.36959 -3.47157 
1 -2.00312 -7.1279 -5.26732 
1 -3.74865 -7.13947 -3.60468 
1 -3.75046 -5.4199 -5.40984 
1 -1.98435 -5.4061 -3.49751 
1 -0.10595 -7.2861 -3.6355 
2 -0.0829482 -5.33065 -5.25587 
2 1.76495 -7.16339 -5.44655 
1 3.61877 -7.04011 -3.68229 
1 3.52794 -5.43085 -5.37668 
1 1.65921 -5.24792 -3.58279 
1 7.0974 -7.0338 -3.67561 
1 5.34178 -7.1509 -5.42414 
1 7.07756 -5.35481 -5.49803 
1 5.3342 -5.31781 -3.6626 
1 10.9768 -7.06053 -3.52875 
1 10.8096 -5.28553 -5.33917 
2 8.96661 -7.06386 -5.424 
2 8.90213 -5.33039 -3.54982 
1 12.6115 -5.06673 -3.27464 
1 -14.1981 -3.73785 -3.45137 
1 -12.6407 -3.70122 -5.35059 
1 -12.7642 0.242743 -5.38052 
2 -12.5501 -1.79158 -3.73542 
1 -10.857 -1.7474 -5.38763 
2 -10.7945 -3.65582 -3.57165 
1 -9.0176 -3.69637 -5.29755 
2 -8.97623 -1.8491 -3.62629 
1 -10.8032 -0.0492609 -3.66089 
2 -8.976 0.0765725 -5.41567 
2 -7.11815 -1.87078 -5.45101 
1 -7.21051 -3.55202 -3.47708 
1 -5.4298 -3.69021 -5.26274 
1 -5.37546 -1.84458 -3.48733 
1 -5.25181 -0.033439 -5.25155 
1 -3.66903 -1.9207 -5.30397 
1 -1.95773 -3.51738 -5.21147 
1 -3.73509 -3.66436 -3.5303 
1 -2.03568 -1.76394 -3.60368 
1 -0.135369 -1.8506 -5.38322 
1 -0.0567929 -3.50593 -3.65419 
1 -0.262411 -0.00138929 -3.55107 
1 -3.66714 0.16171 -3.4647 
1 -1.95633 -0.000711979 -5.33953 
1 1.64712 -0.0301263 -5.45601 
1 1.76289 -3.48649 -5.37511 
1 3.55597 -1.80249 -5.51199 
1 3.5499 -3.55613 -3.63862 
2 1.65988 -1.68943 -3.57099 
1 7.05595 -1.79627 -5.30195 
1 6.9753 -3.59528 -3.63699 
1 5.32611 -3.65162 -5.44729 
1 5.24554 -1.73875 -3.70402 
1 7.09398 -0.0333743 -3.57219 
1 10.5026 -1.71643 -5.41536 
1 10.6806 -3.42458 -3.74132 
1 8.78731 -3.54558 -5.35871 
1 8.85828 -1.72475 -3.59968 
1 12.1756 -1.57171 -3.57061 
2 12.49 -3.16325 -5.27296 
2 12.3707 -0.00300677 -5.40885 
2 14.072 -2.99389 -3.27135 
2 14.2279 0.123637 -3.687 
1 -5.20224 -12.7284 0.253576 
2 -7.34479 -12.5242 1.64479 
2 -7.17079 -12.4561 -1.28803 
1 -1.89159 -14.531 -1.98672 
1 -3.29139 -14.1777 0.237237 
1 -1.279 -14.4644 1.72974 
1 -3.59774 -12.5448 -1.63499 
1 -1.5618 -12.4213 0.134942 
1 -0.0202389 -14.5613 -0.450739 
1 2.19981 -14.1727 -1.84676 
1 3.40338 -14.1995 0.333772 
2 1.40844 -14.2071 1.65498 
2 1.65496 -12.3597 -0.0201184 
1 4.79318 -14.114 -1.97561 
1 -10.8704 -10.7216 -0.103808 
1 -10.7364 -8.92221 -1.65482 
1 -8.98253 -10.7422 -1.57103 
2 -9.04582 -10.6535 1.60717 
1 -8.8469 -8.88172 0.0138818 
2 -10.9335 -9.01611 1.62615 
1 -7.06409 -10.5783 0.103639 
2 -5.28934 -10.6623 -1.58528 
2 -5.33459 -10.7193 1.67677 
1 -7.15622 -9.03249 -1.78071 
1 -7.16705 -8.75837 1.80886 
1 -5.33488 -8.80299 0.0814995 
1 -3.37914 -12.2506 1.79812 
1 -3.40774 -10.6929 -0.00344419 
1 -1.79798 -10.7549 -1.70428 
1 -1.69315 -10.4218 1.71236 
1 -3.61445 -8.86876 -1.67656 
1 -3.50205 -8.77529 1.8043 
1 -1.71407 -8.82314 -0.145973 
1 3.32907 -12.2799 1.70434 
1 -0.000628532 -10.4728 -0.106158 
1 0.00443703 -12.1659 1.84655 
2 0.0735284 -12.4629 -1.70315 
1 -0.0129453 -8.82755 -1.90841 
1 0.083787 -8.88919 1.71076 
1 3.53337 -12.1836 -1.84081 
1 3.53606 -10.6254 0.0254518 
1 1.85357 -10.5989 -1.83873 
1 1.91314 -10.4946 1.81691 
1 3.69527 -8.92913 -1.83571 
1 3.52541 -8.77941 1.7694 
1 1.75905 -8.95617 -0.0465166 
1 5.18663 -12.6036 0.228022 
2 6.87005 -12.565 -1.57159 
1 7.14651 -12.4154 1.7746 
1 7.00541 -10.6482 0.0215364 
1 5.37156 -10.6167 -1.65794 
1 5.20505 -10.5905 1.72834 
1 7.10754 -8.81957 -1.79072 
2 7.10518 -8.73426 1.69677 
1 5.28981 -8.86546 -0.100323 
1 8.86335 -12.095 0.148727 
1 8.9684 -10.8275 -1.95994 
1 10.757 -8.88682 -2.0707 
1 10.875 -8.8056 1.75108 
2 8.97284 -9.02492 -0.0596818 
1 8.9901 -10.6269 2.00052 
1 -12.591 -5.28568 0.115523 
1 -12.5417 -7.07572 -1.56718 
2 -10.6813 -7.08388 0.0513977 
1 -10.7949 -5.42667 -1.69501 
1 -10.6274 -5.32714 1.78664 
1 -8.96463 -7.22074 -1.86086 
1 -9.06394 -7.25269 1.79212 
1 -8.9332 -5.44694 -0.192229 
1 -7.22584 -7.26922 -0.172431 
1 -7.13113 -5.41889 -1.83067 
1 -5.42709 -7.11428 -1.81967 
2 -7.18286 -5.5746 1.65 
1 -5.33304 -7.06933 1.75862 
1 -5.33709 -5.41458 -0.0893522 
1 -3.64842 -7.17596 -0.0434138 
1 -1.90997 -7.21908 -1.90937 
1 -1.7606 -7.2246 1.66557 
1 -3.58748 -5.49052 -1.79124 
1 -3.5443 -5.57292 1.78367 
2 -1.74469 -5.37607 0.0161433 
1 -0.135122 -5.55949 -1.92303 
1 0.11167 -7.07929 -0.0873593 
1 0.135213 -5.30278 1.75809 
1 3.56281 -7.20152 -0.149295 
2 1.81918 -7.13543 -1.8998 
1 1.78479 -7.03069 1.67472 
2 3.61517 -5.31227 -1.82423 
1 3.48818 -5.40607 1.67316 
1 1.68612 -5.38293 -0.01954 
1 7.21737 -7.02786 -0.061005 
1 5.42662 -7.06782 -1.81518 
1 6.98858 -5.24803 -1.78381 
1 5.19659 -7.11539 1.56106 
2 7.15708 -5.33 1.6833 
1 5.33724 -5.34266 0.0304772 
1 10.6707 -7.14136 -0.0789306 
1 10.6397 -5.29542 1.53089 
1 10.6046 -5.23797 -1.83514 
1 8.85908 -7.07189 -1.75187 
1 9.10781 -7.07624 1.61438 
1 8.89328 -5.2054 -0.102669 
1 12.6089 -7.1366 -1.7557 
2 12.4209 -5.2773 -0.174808 
1 12.492 -7.00763 1.59598 
1 -14.2151 -3.55242 -0.0783947 
2 -14.1022 -1.73226 -1.7414 
1 -14.1395 -1.71177 1.60118 
1 -12.5204 -3.67709 -1.75679 
1 -12.4247 -1.78446 -0.132486 
1 -12.4209 -3.48104 1.70823 
1 -10.682 -3.61731 -0.118988 
1 -10.8437 -1.77231 -1.92979 
1 -10.6408 -1.83361 1.68935 
1 -8.94207 -3.6414 -1.85437 
2 -8.93757 -3.57574 1.66703 
1 -9.01201 -1.81577 -0.179096 
1 -7.19246 -3.61401 -0.0603117 
1 -7.21382 -1.9069 -1.7894 
1 -7.21747 -1.79708 1.59631 
1 -5.33146 -3.58108 -1.82326 
2 -5.30921 -3.59629 1.76091 
2 -5.34727 -1.82576 -0.116552 
1 -3.54931 -3.69216 0.108812 
1 -3.56788 -1.84877 -1.8393 
2 -1.76059 -3.65098 -1.87663 
2 -3.50084 -1.77678 1.76416 
1 -1.7958 -3.66406 1.6368 
1 -1.84107 -1.79057 -0.0552981 
1 -0.0247378 -3.51415 -0.0254276 
1 -0.123608 -1.76683 1.7577 
1 -0.176804 -1.62909 -1.75953 
1 -0.153392 -0.058829 0.0747496 
1 -1.86965 -0.024262 -1.65596 
2 3.59612 -3.50066 -0.0257554 
2 1.64291 -3.65522 -1.80208 
1 3.48022 -1.74244 -1.80356 
1 1.82268 -3.51461 1.71018 
1 3.71582 -1.69745 1.86837 
1 1.75663 -1.82981 0.0614796 
1 1.67564 -0.0410175 -1.71547 
2 3.59609 -0.049823 -0.106892 
2 1.67147 -0.0432449 1.76385 
1 6.97693 -3.57702 -0.121143 
1 7.05061 -1.77598 -1.94447 
1 7.12267 -1.78329 1.85334 
1 5.27584 -3.45648 -1.96449 
1 5.3163 -3.43085 1.84029 
2 5.41733 -1.73035 -0.0910989 
1 5.3242 -0.0569074 1.77026 
1 10.6377 -3.60064 -0.172032 
1 10.6822 -1.7244 1.6802 
1 10.6466 -1.6268 -1.73459 
1 8.9138 -3.50605 -1.98723 
1 8.92051 -3.55372 1.79936 
2 8.78479 -1.93271 0.0254163 
1 12.1773 -3.35025 -1.8147 
1 12.4423 -1.78374 -0.0365599 
2 12.5213 -0.0677644 -1.63695 
2 8.79138 -0.0395079 1.67991 
1 12.4011 0.0376669 1.59547 
2 12.6399 -3.55613 1.62281 
2 14.1497 -3.44034 -0.539432 
1 14.8145 -1.29713 -1.75507 
1 14.6911 -2.09286 1.59084 
2 -5.36435 -12.5071 3.53753 
2 -3.37965 -14.2039 3.12229 
1 0.0418798 -14.2463 3.7389 
1 3.36864 -14.1815 3.16117 
1 3.42967 -12.3636 5.25621 
1 5.17566 -12.5827 3.20057 
1 -10.7006 -10.7404 3.53958 
1 -10.8424 -8.87613 5.457 
2 -8.96579 -8.84352 3.58581 
2 -8.90603 -10.6898 5.19733 
1 -7.19732 -10.7273 3.46397 
1 -5.48613 -10.7681 5.3242 
1 -7.25609 -8.89068 5.35835 
2 -5.36656 -8.95379 3.73154 
2 -3.44335 -12.2519 5.19274 
2 0.0287425 -12.3754 5.39202 
1 -1.73286 -12.3429 3.59063 
1 -1.74418 -10.5652 5.32613 
1 -3.40384 -10.5348 3.50657 
2 -3.52374 -8.94989 5.50448 
1 -1.6793 -8.72078 3.5772 
1 1.71626 -12.3549 3.4983 
1 0.0426777 -8.76035 5.37836 
1 0.0297685 -10.4883 3.59364 
1 1.80031 -10.5517 5.38058 
2 3.61381 -10.6088 3.6126 
1 3.53813 -8.90147 5.50995 
1 1.79428 -8.78536 3.57399 
1 6.98314 -10.6513 3.54204 
1 5.44629 -10.6511 5.48872 
2 7.09492 -8.61491 5.29724 
2 5.22786 -8.61458 3.50689 
1 8.87948 -10.2648 5.32699 
2 9.00838 -8.7588 3.50687 
2 10.8123 -8.52894 5.34417 
1 -12.4943 -5.30882 3.46654 
1 -10.7798 -7.11227 3.51142 
1 -10.6616 -5.3408 5.14026 
1 -8.99303 -7.11987 5.29317 
1 -8.91317 -5.52908 3.56994 
1 -7.12943 -7.10508 3.68495 
1 -7.13913 -5.23761 5.33968 
1 -5.36757 -6.98828 5.48568 
2 -5.21011 -5.32652 3.61084 
1 -1.76611 -7.04965 5.23244 
1 -3.63101 -7.1962 3.71937 
1 -3.63092 -5.09763 5.41103 
2 -1.75174 -5.35041 3.39117 
2 0.0827997 -5.4375 5.31284 
1 0.0751242 -7.14411 3.45408 
1 1.95895 -7.15168 5.28467 
1 3.46527 -7.11986 3.59636 
1 3.50152 -5.2829 5.37522 
1 1.76291 -5.26988 3.49386 
1 7.09362 -7.06131 3.49133 
1 5.24724 -7.04269 5.38816 
2 7.12884 -5.33585 5.30939 
2 5.20732 -5.30452 3.45911 
1 10.8362 -7.05202 3.41056 
1 10.8177 -5.41192 5.20354 
1 8.98936 -7.02276 5.45914 
1 8.99888 -5.51665 3.51802 
2 12.5066 -5.29734 3.45478 
1 -12.3752 -0.0926681 5.29971 
1 -14.049 -3.36125 3.45499 
1 -14.211 -0.140458 3.58737 
1 -12.4916 -3.40119 5.43616 
1 -12.3862 -1.72543 3.57812 
1 -10.5722 -1.74296 5.35531 
1 -10.7893 -3.58887 3.58407 
1 -8.90282 -3.61319 5.39917 
2 -8.99487 -1.69483 3.55602 
1 -7.2925 -1.68692 5.33175 
2 -7.16041 -3.55441 3.53589 
1 -5.46069 -3.42968 5.315 
1 -5.34064 -1.80914 3.50957 
2 -3.62953 -1.75047 5.4207 
2 -1.71505 -3.50717 5.35751 
1 -3.50872 -3.57428 3.53772 
1 -1.75339 -1.74588 3.61099 
1 -0.0808354 -0.0458976 3.66219 
1 0.0249013 -1.63802 5.26038 
1 -3.57758 0.025764 3.62555 
1 -1.8237 0.0439183 5.42523 
1 0.00948236 -3.57205 3.43995 
1 1.82971 -3.52863 5.32825 
1 3.64622 -1.72722 5.43485 
1 3.48179 -3.55872 3.62239 
1 1.87993 -1.77838 3.60644 
1 7.14351 -1.82544 5.31162 
1 7.06497 -3.5679 3.59471 
1 5.21442 -3.52937 5.35852 
1 5.38157 -1.77414 3.59481 
2 7.05195 -0.0095721 3.5712 
2 10.7341 -1.90267 5.20584 
1 10.7796 -3.5412 3.44045 
2 8.97278 -3.59509 5.36884 
1 8.89254 -1.88057 3.45763 
1 8.83567 -0.0640607 5.27511 
2 10.6625 0.086839 3.34639 
2 12.5885 -1.82162 3.33711 
1 12.5784 -3.54691 5.32178 
1 14.3998 -3.40388 3.58055 
1 14.4347 -1.60514 5.27641 
2 14.4087 -0.0674847 3.14221 
1 -9.11131 -8.9334 7.06527 
1 -5.27108 -8.96056 10.6679 
1 -5.09019 -10.6148 8.99905 
1 -7.15442 -10.7848 7.03947 
2 -7.18001 -9.06498 8.73808 
1 -5.44254 -8.90918 7.00028 
1 -1.67081 -12.2739 7.22886 
2 -1.76476 -8.6466 10.7718 
1 -1.89555 -10.5715 8.85554 
1 -3.64516 -10.7089 7.11518 
1 -3.50129 -8.74953 8.70387 
1 -1.72018 -8.74571 7.02513 
1 -0.079994 -10.4532 7.06644 
1 -0.0890127 -8.82509 8.91802 
1 1.68557 -12.2845 7.19759 
1 1.76377 -10.5689 8.95976 
1 3.48307 -10.6568 7.17215 
1 3.70694 -8.99842 9.11292 
1 1.78003 -8.85284 7.2628 
1 1.46457 -8.91847 10.6906 
1 7.21799 -10.4871 7.20738 
1 5.49505 -8.70852 10.7067 
1 5.45653 -10.3361 8.83592 
1 7.33988 -8.81618 8.99342 
1 5.45568 -8.75059 7.0693 
1 9.11493 -8.66592 7.27968 
1 -10.5369 -5.27758 9.01016 
2 -10.6913 -6.86286 7.05941 
1 -8.88023 -7.18887 8.788 
1 -8.84766 -5.3278 7.17027 
1 -8.72827 -5.40515 10.6968 
1 -5.55847 -5.39721 10.783 
1 -7.0928 -7.22088 10.5138 
1 -7.14458 -5.39206 8.74091 
1 -5.43116 -7.21691 8.72929 
1 -7.20607 -7.18372 7.04141 
1 -5.31759 -5.21817 7.08634 
2 -3.75416 -7.1993 10.6924 
1 -1.88018 -5.3216 10.6289 
1 -1.80809 -7.01771 8.79519 
2 -3.77326 -5.34524 8.93431 
1 -3.54926 -6.86195 7.05 
1 -1.79472 -5.22892 7.1044 
1 -0.0494674 -7.02287 10.6801 
1 0.0596367 -7.09006 7.14818 
2 -0.0262164 -5.28217 8.92564 
1 3.58886 -7.32648 10.7168 
1 1.90677 -5.33926 10.6324 
1 1.79574 -7.03657 9.03514 
1 3.67165 -5.33663 8.92686 
1 3.62085 -7.27443 7.29181 
2 1.9616 -5.3615 7.22654 
1 7.12751 -6.94625 10.6018 
1 5.46273 -5.29673 10.6634 
1 5.53537 -7.11234 8.95674 
1 7.03923 -5.17347 8.8152 
1 7.25126 -6.96155 7.16546 
2 5.1987 -5.44454 7.16733 
1 8.80032 -5.17197 10.7006 
1 10.546 -5.0545 9.04009 
1 10.657 -6.7184 7.11432 
1 8.983 -6.92298 8.96746 
1 8.86841 -5.19084 7.31564 
2 -12.2824 -1.52375 7.39514 
1 -9.10673 -1.62955 10.4434 
1 -11.0488 -2.78372 9.40483 
2 -10.8853 -3.76973 7.1462 
1 -8.84791 -3.57174 8.92584 
2 -9.11639 -1.73068 7.39312 
1 -11.312 -0.475052 9.44787 
1 -7.24193 -3.4713 10.6599 
1 -5.45252 -1.73719 10.6653 
1 -7.24583 -1.59985 8.86361 
2 -5.5709 -3.48414 8.95341 
1 -7.18502 -3.46588 7.08712 
1 -5.56309 -1.62133 7.2064 
1 -5.42076 -0.0468224 9.13878 
1 -3.68897 -3.55961 10.6854 
1 -1.78823 -1.78572 10.8112 
1 -3.65795 -1.74758 9.00675 
2 -1.72846 -3.38398 9.0124 
1 -3.60888 -3.44474 7.12958 
1 -1.71668 -1.67303 7.09182 
1 0.0697227 -1.71026 9.03559 
1 0.022457 -3.48122 10.7626 
2 -3.6199 0.0946072 7.24367 
1 -3.67095 -0.218354 10.796 
1 1.8174 0.0385823 9.08615 
1 0.0452082 0.0840399 10.6843 
2 0.0445614 -3.4765 7.12894 
1 1.82705 -1.71807 7.11034 
2 3.57981 -3.43998 7.17216 
1 1.89405 -1.82286 10.6508 
1 1.86721 -3.53084 8.933 
1 3.5696 -1.77447 8.91662 
1 3.69168 -3.60384 10.6111 
1 3.42089 -0.00741762 7.15276 
1 3.5557 0.0243112 10.7862 
2 0.0922389 0.0634714 7.19737 
1 7.07792 -0.000477901 7.10049 
1 5.3799 -1.72992 7.09984 
1 7.10878 -3.48286 10.6156 
1 6.99201 -1.61314 8.94695 
1 5.33318 -3.4207 8.89337 
1 5.17582 -1.61526 10.8057 
1 6.96093 -3.50809 7.10414 
1 5.30337 -0.0197748 8.91875 
1 8.87882 -1.78428 7.02127 
2 10.6634 -1.82448 8.71967 
1 11.0057 -3.7974 7.07854 
1 8.77084 -3.39695 8.77954 
1 8.88513 -1.76159 10.6076 
2 9.04603 -0.0930314 8.90507 
1 12.4842 0.0103406 8.9229 
2 10.7512 0.0294727 6.95394 
2 12.6136 -1.79005 7.09378 
1 -0.103432 -8.35736 12.5606 
1 -0.132315 -6.41967 14.2354 
1 -1.94874 -6.76406 12.6193 
1 -3.66353 -5.0595 12.4734 
2 1.80291 -6.88016 12.4774 
1 1.88303 -5.14677 14.1388 
1 3.73737 -5.38374 12.3514 
1 0.0143451 -5.19209 12.2039 
1 -5.52108 -3.37681 12.4856 
1 -7.34862 -1.79914 12.2639 
1 -5.43994 -0.143323 12.5238 
1 0.10514 -0.0755556 14.2878 
2 -0.0295358 -3.63793 13.9488 
1 -3.49388 -1.88021 12.581 
1 -1.75459 -3.61305 12.336 
1 -3.60043 -0.119449 14.2484 
1 -1.64579 -1.66335 14.101 
1 -1.72593 -0.0343107 12.403 
1 0.14683 -1.68255 12.3608 
1 1.69624 0.107082 12.4434 
1 1.81054 -1.88779 14.1554 
1 2.02259 -3.58459 12.3941 
1 3.49736 -1.62548 12.5199 
1 3.37345 -0.0598258 14.1742 
1 6.91472 -1.68941 12.4642 
1 5.38973 0.218806 12.7106 
2 5.20692 -3.37098 12.4104 
1 -7.16438 1.67339 -12.3931 
1 -5.53257 3.53846 -12.6163 
2 -1.75 1.68231 -14.3024 
2 -3.82144 1.74852 -12.5197 
1 -1.89189 3.53152 -12.4566 
1 -0.103222 3.63073 -14.2526 
2 -0.0527225 1.86581 -12.3008 
1 -3.62748 -0.0472161 -14.2693 
2 -1.9319 -0.0744206 -12.3722 
1 3.44372 3.61916 -14.2445 
1 3.48664 1.88865 -12.4448 
2 1.7151 3.63476 -12.4293 
1 1.69028 1.94603 -14.45 
2 3.26027 0.0546197 -14.317 
2 0.0581261 -0.0734015 -14.3849 
1 5.07781 1.82756 -14.2524 
1 6.97275 1.7749 -12.606 
1 5.30005 3.58155 -12.3892 
2 5.1937 0.0147091 -12.4782 
1 -1.66472 7.14236 -12.417 
1 -3.61936 5.19469 -12.5004 
1 -0.271698 5.23248 -12.5333 
1 1.53507 6.80981 -12.3795 
1 3.57598 5.36734 -12.4042 
1 -12.4334 1.89812 -7.35043 
1 -11.1307 3.2034 -9.31776 
1 -9.19952 1.80774 -10.501 
2 -8.79019 3.77878 -8.91102 
2 -9.28127 1.87226 -7.33322 
1 -10.8664 4.00539 -7.04284 
1 -11.0635 0.82447 -9.11044 
1 -7.10926 3.62861 -10.7572 
2 -5.36717 1.75584 -10.6128 
2 -7.17373 1.82695 -8.86594 
1 -5.33824 3.7345 -8.86658 
1 -7.07092 3.80323 -7.04968 
2 -5.37794 1.84562 -7.1084 
1 -3.62191 3.64968 -10.5921 
1 -2.02201 1.87686 -10.6579 
1 -3.60889 1.75997 -8.90353 
2 -1.84307 3.58 -8.9572 
2 -3.56507 3.60012 -6.96917 
1 -1.89121 1.73881 -7.12269 
1 -0.167868 1.74356 -9.10542 
1 -0.162105 3.77643 -10.6201 
1 -0.224175 3.64619 -6.99131 
1 -1.84783 -0.0504308 -9.07561 
1 -3.71139 -0.0656002 -10.5105 
1 3.58303 3.58533 -10.5904 
1 1.91063 1.76634 -10.6943 
1 3.52829 1.86512 -8.951 
2 1.61462 3.52557 -8.98306 
1 3.41861 3.64699 -7.05949 
2 1.55303 1.85159 -7.15516 
1 3.53594 -0.0299361 -10.709 
2 1.61149 -0.018383 -8.90748 
1 3.42308 -0.000547111 -7.14663 
2 7.00651 3.44556 -10.6621 
1 5.21045 1.70842 -10.6734 
1 7.11918 1.77001 -8.93522 
1 5.24785 3.55241 -8.89479 
1 6.91924 3.48821 -7.05874 
1 5.13763 1.81394 -7.10785 
2 7.0427 0.0169035 -7.03517 
2 5.33281 -0.0123033 -8.96513 
2 7.28386 -0.0212966 -10.8964 
1 8.89655 1.87881 -10.8001 
2 10.5586 1.86507 -8.94365 
1 8.81545 3.54137 -8.88558 
1 8.69487 1.87483 -7.14938 
1 10.7278 3.57115 -6.95353 
2 12.4732 1.91004 -7.0168 
1 8.746 -0.0213826 -8.91778 
2 10.6149 0.131295 -7.29567 
1 -10.6215 5.59715 -9.10852 
1 -10.6758 7.25162 -7.14665 
1 -8.77513 7.139 -8.87229 
1 -8.93714 5.50742 -7.07631 
1 -8.73726 5.6655 -10.6412 
2 -5.4146 5.4299 -10.6736 
1 -7.08346 7.35132 -10.6856 
1 -7.01794 5.49817 -8.82313 
1 -5.39291 7.31603 -8.77662 
2 -7.07768 7.26148 -6.99855 
1 -5.31681 5.45967 -6.91685 
2 -3.61633 7.27684 -10.754 
1 -2.00575 5.35925 -10.5799 
1 -1.86666 7.24468 -8.9457 
2 -3.70947 5.57656 -8.70307 
1 -3.70799 7.33648 -6.88651 
1 -1.94291 5.52987 -6.99699 
2 -0.0254682 5.40432 -8.7409 
1 -0.115882 6.96446 -10.6817 
1 -0.0552002 7.21054 -6.94955 
1 3.51633 7.11365 -10.6616 
1 1.70414 5.24649 -10.6241 
2 1.78645 7.11367 -8.84124 
1 3.50466 5.36734 -8.88263 
1 3.51539 7.29751 -7.1783 
1 1.76531 5.36046 -7.07847 
1 6.9983 6.9334 -10.7171 
1 5.09923 5.36361 -10.646 
1 7.00255 5.21321 -8.85256 
1 5.34269 7.06416 -8.85276 
1 7.1166 7.03313 -7.23293 
1 5.28525 5.31981 -7.11507 
1 8.8923 5.16022 -10.6027 
1 10.728 5.15395 -8.79395 
1 8.98087 7.00994 -9.0025 
1 8.81424 5.22927 -7.25511 
2 10.6654 6.91181 -7.08272 
1 -8.99893 9.01702 -6.94612 
1 -5.24891 9.03079 -10.5214 
1 -5.42328 10.7815 -8.72524 
1 -7.24037 9.06332 -8.82616 
1 -5.34788 9.02054 -7.03212 
1 -7.1668 10.8483 -6.9576 
2 -1.66786 8.92823 -10.6806 
2 -1.95963 10.6372 -8.8749 
1 -3.6097 10.7791 -7.06987 
1 -3.65248 8.9186 -8.74927 
1 -1.77517 8.91504 -7.07718 
1 -0.126732 10.7095 -6.96802 
1 -0.137546 12.1913 -9.08563 
1 -0.000157115 8.84231 -8.75903 
1 1.67574 8.78321 -10.6439 
1 1.6545 10.5895 -9.01312 
1 3.53559 10.5938 -7.27838 
1 3.53811 8.91745 -8.97198 
1 1.74022 9.0544 -7.05932 
1 5.30304 8.67299 -10.6114 
1 5.20765 10.5952 -8.92819 
1 7.16373 10.528 -7.28917 
1 7.28403 8.86263 -9.06664 
1 5.43006 8.89536 -7.24257 
1 8.92668 8.73987 -7.30741 
1 -1.72615 12.5037 -7.13034 
2 1.61427 12.3453 -7.2947 
2 -14.0437 3.59465 -3.28498 
2 -12.7084 3.77643 -5.28098 
1 -14.3244 0.0327952 -3.45554 
1 -12.5087 1.75936 -3.59926 
2 -10.8703 1.94606 -5.31663 
1 -10.8396 3.73157 -3.44038 
1 -8.92863 3.68706 -5.50311 
2 -9.04016 1.97332 -3.54445 
1 -7.31163 1.93871 -5.42349 
2 -7.18259 3.61686 -3.53747 
1 -5.3765 3.64598 -5.16349 
1 -5.35794 1.7379 -3.51465 
2 -7.0576 0.0219085 -3.63105 
1 -3.64768 1.78808 -5.29914 
1 -1.93319 3.64027 -5.22827 
1 -3.68095 3.60293 -3.5409 
1 -1.93792 1.77015 -3.62573 
1 -0.204819 1.84032 -5.34494 
1 -0.155815 3.54382 -3.56138 
1 3.49167 1.71376 -5.29477 
2 1.66895 3.58109 -5.28002 
1 3.5002 3.68159 -3.51388 
2 1.63551 1.68999 -3.44488 
1 3.46916 -0.0322405 -3.51287 
1 7.07762 1.80533 -5.29795 
1 7.01288 3.50472 -3.55565 
1 5.22241 3.56568 -5.34627 
1 5.24784 1.80924 -3.5149 
1 5.20034 0.0379925 -5.3891 
1 10.4941 1.76732 -5.21493 
1 10.6772 3.65125 -3.61205 
2 8.9992 3.69333 -5.31792 
1 8.75416 1.82378 -3.6418 
1 12.242 1.70123 -3.56531 
1 12.3496 3.50673 -5.24656 
1 10.5712 0.014654 -3.58667 
1 8.89303 0.0692434 -5.30089 
1 14.1037 3.4016 -3.73441 
1 -12.5897 5.4391 -3.29926 
1 -10.6528 7.1027 -3.43962 
1 -10.7597 5.48398 -5.20931 
2 -8.95666 7.1747 -5.21262 
1 -8.95532 5.27951 -3.50973 
1 -7.04483 7.29752 -3.44234 
1 -7.10336 5.44581 -5.18992 
1 -5.4899 7.25812 -5.14756 
1 -5.34378 5.49491 -3.47297 
1 -1.89806 7.30506 -5.22386 
1 -3.63044 7.32375 -3.35161 
1 -3.6053 5.53313 -5.20981 
1 -1.91022 5.46623 -3.45942 
1 -0.0597859 5.38379 -5.33372 
2 0.101556 7.18223 -3.4457 
1 1.82145 7.22813 -5.45108 
2 3.50776 7.24134 -3.65851 
1 3.49539 5.38418 -5.44405 
1 1.70862 5.39502 -3.53513 
1 7.10969 7.177 -3.6359 
1 7.05265 5.32743 -5.32171 
2 5.44165 7.0792 -5.44315 
1 5.24801 5.35531 -3.69645 
1 10.5438 7.0981 -3.57354 
1 10.7925 5.44315 -5.41262 
1 8.76426 7.0681 -5.40112 
1 8.85712 5.3985 -3.56838 
2 12.3781 5.40577 -3.48408 
1 -10.8063 8.86823 -5.1465 
1 -9.14356 10.5723 -5.10926 
1 -8.88972 8.96742 -3.45527 
1 -10.545 10.7219 -3.30892 
1 -7.28347 10.8038 -3.3922 
1 -5.37439 10.8157 -5.19773 
1 -7.13493 9.16472 -5.18616 
1 -5.38154 9.16392 -3.40488 
1 -5.3382 12.522 -3.44186 
1 -1.79183 10.7719 -5.22971 
1 -3.47531 10.8282 -3.26492 
2 -3.67349 9.08683 -5.17138 
1 -1.74999 8.96189 -3.37262 
1 -3.72969 12.4613 -5.22704 
1 -1.7555 12.5417 -3.42903 
1 0.0163663 10.819 -3.4408 
1 -0.0410725 9.06543 -5.24331 
2 1.89192 10.8336 -5.27578 
1 3.60629 10.7612 -3.54194 
1 3.6533 9.02156 -5.35672 
1 1.70679 8.93086 -3.58711 
1 7.22942 10.9058 -3.65376 
2 5.47025 10.8673 -5.47332 
1 7.11679 8.78166 -5.55141 
2 5.4164 9.06973 -3.59388 
1 10.7587 8.69653 -5.38224 
1 8.88289 10.4479 -5.53909 
1 8.77319 8.84539 -3.65423 
1 -0.223413 12.5068 -5.27558 
1 -3.31943 14.2074 -3.52285 
1 -0.0279475 14.3114 -3.54939 
1 1.67261 12.5548 -3.41142 
1 3.65555 12.5488 -5.52815 
2 1.67296 13.9024 -5.42027 
1 3.48817 14.1534 -3.63465 
1 5.37901 12.6399 -3.62155 
1 -14.1843 0.120539 -0.0759014 
1 -14.2547 3.47815 -0.0613114 
1 -14.2686 1.69085 -1.8685 
1 -14.1523 1.69909 1.85862 
2 -12.5043 3.5532 1.78798 
1 -12.4464 0.0480012 -1.75484 
1 -12.3922 3.5889 -1.70428 
1 -12.4575 1.79227 -0.051819 
2 -10.6744 3.68181 -0.0894674 
1 -10.7563 1.8195 -1.81932 
1 -10.6319 1.8749 1.72245 
1 -8.86619 3.58842 -1.63209 
1 -8.94876 3.63156 1.90596 
1 -8.96502 1.88645 -0.074706 
2 -8.90869 0.059754 1.72049 
2 -12.4075 -0.0355639 1.67577 
1 -8.91218 0.00703985 -1.84188 
1 -10.6802 0.147297 -0.0980545 
1 -7.17804 3.62962 0.00656471 
1 -7.12029 1.76983 -1.65823 
1 -7.16141 2.03766 1.71889 
1 -5.37427 3.46259 -1.77035 
1 -5.42941 3.57818 1.85826 
1 -5.39762 1.81581 -0.0461105 
2 -5.35747 0.0926836 1.72285 
1 -5.41036 -0.00370017 -1.73533 
1 -7.20386 0.0142331 -0.0203766 
2 -3.60793 3.58984 -0.0211516 
1 -3.54663 1.75994 -1.74515 
2 -1.87068 3.63834 -1.79894 
1 -3.56071 1.77167 1.84478 
1 -1.89501 3.61128 1.87563 
1 -1.73273 1.80646 0.105536 
1 -0.0290494 1.79514 1.81274 
1 -1.72275 0.047649 1.91096 
1 -3.50802 0.0106758 -0.0256758 
1 -0.102392 3.57724 0.109404 
1 -0.147288 1.80051 -1.70018 
2 3.62851 3.65075 0.10592 
1 3.60514 1.80417 -1.80726 
2 1.67902 3.62341 -1.76749 
1 3.55086 1.6933 1.83306 
1 1.77611 3.56849 1.86815 
2 1.72513 1.82144 -0.00935369 
1 7.03574 3.60261 -0.0905697 
1 7.23207 1.79584 -1.78587 
1 7.03537 1.81916 1.73837 
1 5.26883 3.65541 -1.87315 
1 5.38081 3.68095 1.81944 
2 5.39362 1.79566 -0.0169347 
1 7.06138 0.00960862 -0.157114 
1 5.36028 0.0303953 -1.91531 
1 8.7555 -0.0937553 -1.80153 
1 10.7024 3.59234 -0.0669624 
1 10.714 1.90802 1.71253 
2 10.4064 1.78072 -1.82248 
1 8.85645 3.69466 -1.82409 
1 8.71016 3.57643 1.66402 
1 8.73413 1.9679 0.0324349 
1 12.3188 3.50948 -1.88667 
1 12.4678 1.86003 0.0213313 
1 10.5934 0.0174624 0.0320169 
1 12.6234 3.77738 1.75876 
1 14.0897 3.752 -0.319594 
2 14.169 1.69733 -1.67013 
1 14.4275 2.06426 1.57239 
1 14.314 0.0285796 0.25223 
1 -12.6971 5.37577 -0.059145 
1 -12.4596 7.17498 -1.66511 
1 -12.3748 7.32779 1.67562 
1 -10.6951 7.03329 -0.0351318 
1 -10.6942 5.34586 -1.686 
1 -10.7893 5.38445 1.80362 
1 -8.83923 7.1758 -1.86237 
2 -9.01042 7.17244 1.66451 
1 -8.81301 5.36908 -0.0320383 
1 -7.25674 7.16121 -0.0650125 
1 -7.05116 5.22233 -1.65609 
2 -5.39485 7.22572 -1.65746 
1 -7.14162 5.35878 1.7649 
1 -5.30895 7.05696 1.58897 
1 -5.41918 5.28356 0.0351368 
1 -3.56315 7.19036 0.0420742 
1 -1.89856 7.12903 -1.64002 
1 -1.76062 7.23622 1.96316 
1 -3.62781 5.44244 -1.80626 
1 -3.52965 5.37147 1.9501 
2 -1.78034 5.55521 0.128165 
1 0.0119592 5.35683 -1.76142 
1 -0.0763525 5.38732 1.84899 
1 0.099011 7.09696 -0.000792854 
1 3.6363 7.11726 0.124477 
1 1.86868 7.1356 -1.57325 
2 1.78336 7.11036 1.84752 
1 3.52698 5.39724 -1.74345 
2 3.69314 5.30581 1.84613 
1 1.77371 5.35558 0.0898227 
1 7.13461 7.12964 0.104916 
1 7.12806 5.35746 -1.85228 
2 5.28846 7.07847 -1.86307 
1 7.10978 5.46138 1.76379 
1 5.28565 7.21527 1.8899 
1 5.44881 5.43127 0.0177695 
1 10.4686 7.07052 -0.154762 
1 10.4521 5.27039 1.70173 
1 10.6566 5.26339 -1.81675 
1 8.90549 7.08014 -1.81292 
2 9.08985 7.31978 1.80415 
1 8.79047 5.2421 -0.111935 
2 11.993 7.33008 1.75954 
1 12.3683 7.09371 -1.69417 
1 12.3736 5.47584 0.0150249 
2 -8.8832 10.8005 -1.36628 
1 -8.924 10.9011 1.58793 
2 -10.6564 8.90752 -1.49292 
1 -10.8962 9.28336 1.31318 
1 -8.93639 8.86324 0.169289 
1 -7.02807 10.7333 0.233609 
1 -5.27107 10.8289 1.88395 
1 -5.34591 10.7789 -1.5953 
1 -7.13491 9.06799 -1.71624 
1 -7.05416 8.8932 1.79344 
1 -5.40075 8.9419 0.102963 
1 -7.17969 12.7142 1.77463 
1 -7.17287 12.5903 -1.50071 
1 -3.51428 10.8789 0.0880177 
2 -1.6184 10.7724 1.89603 
1 -1.69926 10.8167 -1.70392 
1 -3.45263 9.05292 -1.65802 
2 -3.62109 8.97936 1.68463 
1 -1.64038 8.96816 0.0783607 
1 -3.40401 12.4936 -1.75509 
2 0.196891 8.91913 -1.57925 
1 0.114257 8.94436 1.80187 
1 0.120705 10.8048 0.111654 
1 -0.00320503 12.4923 -1.60564 
1 3.71905 10.838 0.176959 
1 1.91898 10.7637 1.89763 
1 1.89784 10.8035 -1.72726 
1 3.50694 9.0222 -1.70488 
1 3.75333 8.93186 1.91213 
1 2.02463 9.12836 0.196227 
2 1.81108 12.4991 0.0919743 