ITEM: TIMESTEP
1360000
ITEM: NUMBER OF ATOMS
1289
ITEM: BOX BOUNDS pp pp pp
-100 100
-100 100
-100 100
ITEM: ATOMS type x y z 
1 -1.63897 -7.10701 -12.5254 
1 -3.48282 -5.48711 -12.4536 
1 -0.0902045 -5.14894 -12.4488 
1 1.49335 -6.98475 -12.4791 
1 3.54259 -5.27507 -12.6381 
1 -6.92898 -1.80211 -12.4963 
2 -5.33939 -3.51776 -12.3518 
2 -1.87606 -1.75776 -14.2858 
2 -3.65204 -1.90722 -12.5512 
1 -1.93706 -3.62723 -12.3525 
1 -0.0830871 -1.87244 -12.4472 
2 -1.68884 0.0122508 -12.4082 
1 -3.56164 0.10689 -14.4181 
1 -0.042475 -3.3633 -14.2231 
2 3.57144 -3.13262 -14.1516 
1 1.70579 -3.58871 -12.6006 
1 3.68274 -1.69149 -12.2997 
1 1.56539 -1.63862 -14.3923 
2 3.56261 -0.100097 -14.3181 
1 5.52068 -1.58495 -14.5651 
2 7.17137 -1.85945 -12.4034 
2 5.30484 -3.5044 -12.3979 
1 -1.56692 -12.6929 -7.28297 
1 1.74537 -12.497 -7.3312 
1 -8.95158 -9.15273 -7.12179 
2 -5.36745 -10.6093 -8.79627 
1 -5.27391 -8.89021 -10.6873 
1 -7.20815 -8.99496 -8.98184 
1 -5.28772 -8.95186 -7.08941 
1 -6.99065 -10.5805 -7.0397 
1 -1.88873 -10.8801 -9.06365 
1 -1.67554 -8.98509 -10.7762 
1 -3.47568 -11.0077 -7.21538 
2 -3.42727 -9.02119 -8.83645 
1 -1.85668 -8.95557 -7.20803 
1 -0.121119 -8.98233 -8.96586 
1 -0.00739584 -10.7047 -10.5978 
2 0.0646264 -10.8709 -7.21411 
1 1.58482 -8.92303 -10.9585 
2 1.8549 -10.74 -9.09052 
1 3.49835 -10.8466 -7.21547 
2 3.5009 -8.86131 -9.02453 
1 1.71386 -9.08872 -7.33501 
1 5.04087 -10.6232 -8.96084 
1 6.9835 -8.85997 -8.79029 
1 5.12293 -8.86942 -7.22862 
1 6.75128 -10.7387 -7.23341 
1 5.25065 -8.81725 -10.7442 
1 8.80573 -8.93098 -7.16643 
1 -10.6407 -5.44917 -8.83203 
1 -8.82666 -5.33401 -10.6084 
1 -8.95131 -7.09513 -8.86475 
2 -8.74863 -5.3362 -7.08921 
2 -10.6282 -7.06969 -7.02433 
1 -7.047 -7.05192 -10.5641 
1 -5.26947 -5.23367 -10.5673 
1 -6.96259 -5.28081 -8.89308 
1 -5.24979 -7.21648 -8.8944 
2 -7.14619 -7.27166 -7.24933 
1 -5.33552 -5.38534 -7.02319 
2 -3.49307 -7.16811 -10.6858 
1 -1.85454 -5.28526 -10.6131 
1 -1.88671 -7.10687 -8.99595 
1 -3.58167 -5.36362 -8.78651 
1 -3.58443 -7.11935 -7.03931 
2 -1.89545 -5.26783 -7.03258 
2 0.0600508 -5.22684 -8.95691 
1 -0.0646824 -7.07973 -10.6274 
2 -0.0328388 -7.16793 -7.31591 
2 3.48735 -7.03686 -10.8251 
1 1.70832 -5.22631 -10.7795 
1 1.70754 -7.11913 -9.07985 
1 3.45896 -5.25358 -9.01775 
1 3.36976 -7.13119 -7.14889 
2 1.79227 -5.23108 -7.17737 
1 6.95692 -7.10381 -10.6485 
1 5.31479 -5.24525 -10.7131 
1 5.16324 -7.09792 -8.94477 
1 7.14049 -5.21111 -8.84747 
1 6.9519 -7.04853 -7.16359 
1 5.20509 -5.33132 -7.28797 
1 8.99813 -4.91435 -10.5616 
1 10.6466 -5.33074 -8.8017 
1 10.453 -7.04626 -7.112 
2 8.74063 -6.99437 -8.83351 
1 8.75753 -5.28246 -7.10697 
1 -12.4114 -1.82612 -6.86774 
1 -10.6822 -1.77205 -8.79568 
1 -8.88578 -1.90058 -10.6891 
1 -10.7997 -3.792 -7.2118 
1 -8.89886 -3.58017 -8.91416 
1 -8.96425 -2.00037 -7.21639 
1 -7.03157 -3.53804 -10.5658 
1 -5.21282 -1.76293 -10.6666 
1 -6.9798 -1.80637 -8.87219 
1 -5.35063 -3.61254 -8.78664 
1 -6.99529 -3.57626 -7.1917 
1 -5.29625 -1.70095 -7.12859 
1 -5.44573 0.0747788 -8.92422 
1 -3.67153 -3.58442 -10.5772 
1 -1.90311 -1.70813 -10.68 
1 -3.63573 -1.69533 -8.85357 
2 -1.90702 -3.54515 -8.90097 
1 -3.64976 -3.4523 -7.04185 
1 -1.88931 -1.73536 -7.13593 
1 -0.0409963 -1.78762 -8.99771 
1 0.038803 -3.42496 -10.7152 
1 -0.0177165 -0.0589354 -10.6632 
1 -0.0617249 -3.29872 -7.09353 
1 3.57853 -3.57237 -10.7582 
1 1.76434 -1.77822 -10.7612 
1 1.73072 -3.39113 -8.95497 
2 3.59223 -1.82238 -9.06278 
1 3.43258 -3.39001 -7.17138 
1 1.64694 -1.70941 -7.1749 
1 7.00997 -3.53669 -10.6089 
1 5.3724 -1.69196 -10.6146 
1 7.19363 -1.71634 -8.94448 
1 5.39979 -3.45001 -8.93257 
1 7.10618 -3.50583 -7.13224 
1 5.29198 -1.82657 -7.15118 
1 9.07617 -2.0868 -10.7076 
1 10.5958 -3.54632 -6.92121 
1 8.81925 -3.42383 -8.72432 
2 8.84076 -1.77102 -6.97179 
2 10.6761 -1.82238 -9.03707 
2 10.5934 -0.036846 -7.07653 
1 8.84857 -0.00449422 -8.74872 
1 12.4115 -1.77629 -6.93691 
1 -5.19029 -12.5885 -3.45209 
1 -1.83151 -14.3115 -5.38994 
1 -1.80417 -12.6381 -3.48486 
1 -3.49504 -12.594 -5.45625 
2 -0.0534242 -14.3147 -3.43812 
1 0.151197 -12.7825 -5.49545 
2 1.91301 -12.5828 -3.60331 
1 3.45993 -12.678 -5.44431 
1 5.09479 -12.7123 -3.59758 
1 -10.7955 -8.92284 -5.18257 
1 -9.04128 -10.5537 -5.09801 
2 -8.78586 -8.90574 -3.46714 
1 -7.00611 -10.74 -3.71998 
1 -5.15651 -10.793 -5.39914 
1 -6.97927 -8.91769 -5.35882 
1 -5.33253 -8.94632 -3.68781 
2 -1.72095 -10.8143 -5.39348 
1 -3.60034 -10.6957 -3.60084 
1 -3.54051 -9.07281 -5.47285 
2 -1.70252 -8.89185 -3.64091 
1 -0.0175688 -8.91782 -5.47871 
2 -0.00511183 -10.986 -3.64997 
1 1.72926 -10.7563 -5.35929 
1 3.37938 -10.6952 -3.5669 
1 3.34853 -8.98663 -5.5345 
1 1.67382 -9.03994 -3.58082 
2 6.84987 -10.8354 -3.65002 
1 5.20216 -10.8249 -5.51627 
1 6.89657 -8.9227 -5.49729 
2 5.16688 -8.89685 -3.61963 
1 8.66617 -10.6778 -5.53867 
2 8.6381 -8.98951 -3.65766 
1 10.4383 -8.92859 -5.37109 
1 -12.5238 -5.29593 -3.63848 
1 -10.7268 -7.06302 -3.49678 
1 -10.7802 -5.37061 -5.34997 
2 -8.90079 -7.0511 -5.25097 
1 -8.94137 -5.3367 -3.51531 
1 -7.07927 -7.16575 -3.667 
1 -7.13515 -5.20348 -5.24233 
1 -5.36606 -7.139 -5.27645 
1 -5.42791 -5.30443 -3.55754 
1 -1.74489 -7.25477 -5.49064 
1 -3.61908 -7.20886 -3.65173 
1 -3.62811 -5.28843 -5.27627 
1 -1.76738 -5.32407 -3.71705 
2 0.00316564 -5.28831 -5.39634 
1 -0.0839805 -6.99725 -3.58978 
2 1.70484 -7.20825 -5.3191 
1 3.45236 -7.20351 -3.67659 
1 3.39806 -5.30445 -5.24176 
1 1.69751 -5.24403 -3.57801 
1 6.92328 -7.11326 -3.51227 
1 5.21659 -7.16331 -5.42083 
1 6.8372 -5.26478 -5.42022 
1 5.33825 -5.4354 -3.63199 
1 10.7319 -7.22786 -3.55656 
1 10.7976 -5.30678 -5.40098 
2 8.72389 -7.00086 -5.3857 
2 8.72442 -5.39995 -3.50993 
1 12.4572 -5.35575 -3.38815 
1 -14.1992 -3.44907 -3.42163 
1 -12.5561 -3.64031 -5.34196 
2 -12.3884 -1.7729 -3.61069 
1 -10.7509 -1.89627 -5.33956 
2 -10.697 -3.67017 -3.51946 
1 -8.97237 -3.64915 -5.41178 
2 -8.98524 -1.89067 -3.51429 
1 -10.7415 -0.00767249 -3.52626 
2 -9.05834 0.113373 -5.42818 
2 -7.05371 -1.88971 -5.40528 
1 -7.16297 -3.50745 -3.5602 
1 -5.36739 -3.60705 -5.32047 
1 -5.3046 -1.76191 -3.4905 
1 -3.49934 -1.73704 -5.31081 
1 -1.85601 -3.5308 -5.44143 
1 -3.59752 -3.4959 -3.60747 
1 -1.79411 -1.74147 -3.50873 
1 -0.0335311 -1.68474 -5.40345 
1 -0.104713 -3.39248 -3.71531 
1 1.72718 -3.41907 -5.37655 
1 3.56216 -1.73063 -5.38913 
1 3.58975 -3.43613 -3.60056 
2 1.6377 -1.64905 -3.47341 
1 6.91746 -1.79762 -5.31804 
1 7.00549 -3.58623 -3.64597 
1 5.2238 -3.50211 -5.48243 
1 5.24461 -1.73299 -3.65685 
1 5.29966 0.0545022 -5.33259 
1 10.6432 -1.83757 -5.18738 
1 10.5422 -3.72685 -3.44912 
1 8.80462 -3.61787 -5.31011 
1 8.80944 -1.84655 -3.55154 
1 12.2371 -1.79598 -3.26523 
2 12.6264 -3.50703 -5.01335 
1 8.92398 0.121948 -5.27962 
1 10.5557 -0.0846559 -3.52149 
2 12.5194 -0.0833663 -5.09551 
2 14.2002 -3.25709 -2.81799 
2 14.188 -0.376198 -3.2788 
1 -5.1965 -12.5767 0.125407 
2 -7.02183 -12.6876 1.57775 
1 -1.77688 -14.3751 -1.54027 
1 -3.44191 -14.3804 0.252955 
1 -1.19213 -14.4786 1.15426 
1 -3.64908 -12.6845 -1.76902 
1 2.27037 -14.5112 -2.06619 
1 0.561493 -14.6981 -0.44877 
1 3.47908 -14.3894 0.327263 
2 1.38722 -14.2593 1.79365 
2 -0.0596785 -12.4124 -1.6731 
1 3.42187 -12.5108 1.8657 
1 4.80224 -14.285 -1.65932 
1 5.08255 -12.4879 0.101543 
1 6.86568 -12.3561 1.74703 
1 -10.5515 -10.6648 -0.0889088 
1 -10.5707 -8.93362 -1.78515 
1 -8.74741 -10.7425 -1.74166 
2 -8.65353 -10.8105 1.80146 
1 -8.78574 -8.99399 0.0134132 
2 -10.7044 -8.97358 1.76677 
2 -6.98524 -12.3959 -1.62618 
1 -7.01587 -10.5908 -0.0057998 
2 -5.26218 -10.6176 -1.74643 
2 -5.36371 -10.59 1.69323 
1 -7.05322 -8.92417 -1.8747 
1 -7.00623 -8.69033 1.67764 
1 -5.21105 -8.86078 -0.145797 
1 -1.82381 -12.4543 0.00529604 
1 -3.38601 -12.2771 1.70251 
1 -3.42279 -10.605 0.0353681 
1 -1.89818 -10.7738 -1.74637 
1 -1.70902 -10.5179 1.82124 
1 -3.54724 -8.84056 -1.81129 
1 -3.61964 -8.74962 1.7114 
1 -1.89178 -8.81449 -0.0480238 
1 -0.0923531 -12.379 1.87327 
1 -0.11839 -10.6075 0.0384731 
1 -0.210228 -8.98945 -1.76057 
1 -0.0673587 -8.78083 1.71383 
2 1.70575 -12.5708 0.0853164 
1 3.3935 -12.4043 -1.71692 
1 3.36198 -10.7593 0.0988439 
1 1.65836 -10.7425 -1.72124 
1 1.61576 -10.5659 1.72507 
1 3.25682 -8.95602 -1.7857 
1 3.34027 -8.8431 1.76714 
1 1.74215 -8.86077 -0.0276331 
2 6.77773 -12.5449 -1.76654 
1 6.75903 -10.6479 -0.11137 
1 5.01871 -10.7132 -1.76104 
1 5.0315 -10.6867 1.69061 
1 6.94944 -8.89857 -1.78449 
2 6.80857 -8.94767 1.59983 
1 5.0402 -8.82895 0.0662332 
1 8.64888 -12.116 0.139373 
1 8.70554 -10.8781 -1.9717 
1 10.4807 -8.98516 -2.00016 
1 10.4375 -8.92522 1.76958 
2 8.74576 -9.28298 -0.0433181 
1 8.80991 -10.8153 2.00063 
1 -12.4473 -7.16525 -1.73932 
1 -12.4554 -5.53802 0.189512 
2 -10.5774 -7.20761 0.0658733 
1 -10.6955 -5.44262 -1.77912 
1 -10.6125 -5.43954 1.87163 
1 -8.80269 -7.14189 -1.76142 
1 -8.8239 -7.17816 1.73258 
1 -8.85324 -5.47868 0.00550607 
1 -7.03851 -7.09294 -0.130623 
1 -7.0864 -5.2858 -1.84426 
1 -5.27351 -7.04928 -1.77777 
2 -7.17336 -5.42427 1.82112 
1 -5.25161 -6.93639 1.57372 
1 -5.22072 -5.2947 -0.0269215 
1 -3.54825 -7.02975 -0.0280004 
1 -1.84126 -7.11959 -1.87012 
1 -1.93145 -6.96318 1.75608 
1 -3.56284 -5.32226 -1.96617 
1 -3.62256 -5.18671 1.78038 
2 -1.71758 -5.25615 0.0756907 
1 -0.100326 -5.25505 -1.95742 
1 -0.0820013 -7.08238 -0.105161 
1 -0.0443219 -5.31172 1.93048 
1 3.37078 -7.08821 -0.14507 
2 1.61383 -7.09944 -1.87219 
1 1.64403 -7.10724 1.81166 
2 3.62054 -5.44519 -1.93501 
1 3.30701 -5.41904 1.75199 
1 1.48448 -5.35712 0.0637996 
1 6.90415 -7.19784 -0.076603 
1 5.22379 -7.29507 -1.82912 
1 6.88855 -5.42707 -1.78222 
1 5.14394 -7.13654 1.81228 
2 6.99297 -5.46257 1.86531 
1 5.12153 -5.44094 0.0171073 
1 10.4583 -7.2834 -0.0538819 
1 10.3829 -5.56967 1.62898 
1 10.4861 -5.48288 -1.84993 
1 8.78487 -7.2021 -1.87259 
1 8.6637 -7.20354 1.6967 
1 8.64894 -5.52226 -0.0771339 
2 12.303 -5.45735 0.0645529 
1 12.2641 -7.30402 -1.66586 
1 12.2042 -7.21302 1.75949 
1 -14.2067 -3.48687 0.138467 
2 -14.057 -1.63561 -1.66781 
1 -14.1493 -1.77808 1.95327 
1 -14.139 -0.021311 0.198557 
1 -12.384 -3.79286 -1.57875 
1 -12.3358 -3.58384 1.78746 
1 -12.3563 -1.84995 0.0548217 
1 -10.621 -3.62723 -0.00370162 
1 -10.737 -1.884 -1.6729 
1 -10.5471 -1.83985 1.85914 
1 -8.82046 -3.6329 -1.61535 
2 -9.00944 -3.63262 1.82405 
1 -8.8648 -1.83361 0.00510104 
2 -8.88935 -0.0186191 1.62099 
1 -7.01076 -3.57702 -0.00152111 
1 -7.16608 -1.6855 -1.78225 
1 -7.17382 -1.72264 1.84917 
1 -5.24049 -3.48711 -1.82168 
2 -5.4186 -3.48136 1.87618 
2 -5.3602 -1.70129 -0.0262135 
1 -3.53602 -3.4521 -0.013753 
1 -3.59324 -1.72889 -1.84304 
2 -1.85012 -3.54566 -1.77966 
2 -3.58162 -1.69928 1.94454 
1 -1.86257 -3.55419 1.80566 
1 -1.85278 -1.73244 0.0302033 
1 -0.0434897 -1.67024 -1.72179 
1 -0.129252 -3.45744 0.0223055 
1 -0.153794 -0.0938001 0.0333238 
1 -0.205747 -1.77602 1.79957 
2 3.47489 -3.60692 -0.00415838 
2 1.71091 -3.5899 -1.77151 
1 3.61953 -1.73482 -1.92623 
1 1.51558 -3.59225 1.75411 
1 3.51272 -1.80099 1.79075 
1 1.659 -1.73065 0.011429 
1 1.72704 0.1131 -1.70901 
2 1.70116 -0.109434 1.75642 
2 3.65598 0.0392945 -0.0621503 
1 6.93119 -3.73545 0.0644346 
1 7.11598 -1.89141 -1.84268 
1 7.13047 -1.99903 1.75404 
1 5.32945 -3.55511 -1.81811 
1 5.17561 -3.59643 1.85979 
2 5.47416 -1.81105 -0.0493863 
1 5.33255 0.0162039 1.78469 
1 7.11397 -0.122152 0.0951316 
1 12.2271 -0.0387456 1.61164 
1 10.3994 -3.77229 -0.071345 
1 10.5978 -1.8468 1.83168 
1 10.4674 -1.9036 -1.92105 
1 8.72981 -3.81523 -1.84478 
1 8.74017 -3.73143 1.67413 
2 8.90062 -1.79832 -0.125487 
1 12.1064 -3.68577 -1.69768 
1 12.2536 -1.93849 -0.133105 
2 12.2372 -3.65281 1.64517 
2 8.85791 -0.0791956 1.76895 
1 10.514 -0.00087217 0.0135495 
2 14.1024 -3.71049 -0.183228 
1 14.2964 -1.52428 -1.25587 
1 14.1259 -1.93708 1.50597 
2 -5.0823 -12.631 3.42687 
2 -2.96922 -14.1276 3.00978 
1 -0.335308 -14.1737 3.5718 
2 -3.37427 -12.4141 5.24774 
2 -0.108314 -12.3859 5.20135 
1 2.98232 -14.1385 3.76996 
1 3.38789 -12.4798 5.40599 
1 1.57448 -12.2164 3.50769 
1 5.11187 -12.5678 3.63733 
1 -10.5933 -10.7028 3.49747 
1 -10.6166 -8.87452 5.26754 
2 -8.74575 -8.93793 3.57025 
2 -8.81909 -10.7279 5.24555 
1 -6.95886 -10.9267 3.55873 
1 -5.27523 -10.871 5.37279 
1 -7.12832 -9.06726 5.49054 
2 -5.51736 -8.89106 3.64561 
1 -1.87508 -12.1336 3.46382 
1 -1.76792 -10.5495 5.38578 
1 -3.66026 -10.6019 3.50151 
2 -3.53018 -8.95114 5.4132 
1 -1.84346 -8.788 3.43431 
1 -0.110806 -10.4637 3.62105 
1 -0.113613 -8.80281 5.38877 
1 1.55114 -10.4921 5.42719 
2 3.45138 -10.6232 3.6505 
1 3.4835 -8.8846 5.48088 
1 1.67082 -8.76984 3.58807 
1 6.76253 -10.8102 3.60157 
1 5.32342 -10.8547 5.4003 
2 7.08485 -8.96202 5.42327 
2 5.14021 -8.91305 3.45481 
1 8.89482 -10.7094 5.2247 
2 8.67133 -8.9666 3.47632 
2 10.3728 -8.73993 5.33316 
1 -12.4282 -5.49711 3.51064 
1 -10.6168 -7.20908 3.5844 
1 -10.7582 -5.36855 5.23809 
1 -8.88059 -7.1237 5.32526 
1 -9.00163 -5.48889 3.5923 
1 -7.10587 -7.16068 3.69188 
1 -7.15784 -5.44205 5.36262 
1 -5.38009 -7.25486 5.32895 
2 -5.31812 -5.36771 3.66053 
1 -1.9373 -7.12265 5.41651 
1 -3.61748 -7.08178 3.66608 
1 -3.62618 -5.40361 5.531 
2 -1.88947 -5.28728 3.64684 
1 -0.0920566 -7.17699 3.61068 
2 0.00961507 -5.47048 5.48581 
1 1.7335 -7.18026 5.37689 
1 3.39539 -7.13525 3.6115 
1 3.49117 -5.40494 5.34806 
1 1.69063 -5.30705 3.55278 
1 6.93963 -7.20974 3.54782 
1 5.12627 -7.13122 5.37197 
2 7.05345 -5.46244 5.33911 
2 5.08065 -5.38698 3.61674 
1 10.4578 -7.17176 3.46461 
1 10.8807 -5.55584 5.27018 
1 8.78192 -7.02384 5.38999 
1 8.91823 -5.50119 3.56002 
2 12.3214 -5.34792 3.47758 
1 -14.1014 -0.131256 3.65545 
1 -13.8816 -3.50743 3.62043 
1 -12.3637 -3.60896 5.42646 
1 -12.2486 -1.75906 3.78892 
1 -10.5955 -1.89416 5.52638 
1 -10.807 -3.56035 3.66428 
1 -8.94895 -3.58585 5.43662 
2 -8.95087 -1.77804 3.68795 
1 -12.2914 -0.0162734 5.52428 
1 -7.12789 -1.77007 5.42399 
2 -7.15881 -3.55627 3.70511 
1 -5.38502 -3.49643 5.3891 
1 -5.47435 -1.66012 3.7667 
2 -3.62544 -1.59887 5.50911 
2 -1.86619 -3.47554 5.37251 
1 -3.61689 -3.45156 3.66784 
1 -1.66344 -1.69616 3.68674 
1 0.146709 -1.79954 5.29896 
1 0.0896513 0.0301115 3.67169 
1 3.54918 -0.0398668 3.60216 
1 -0.0060695 -3.56691 3.6326 
1 1.78344 -3.41627 5.33341 
1 3.70353 -1.80836 5.2515 
1 3.33757 -3.59698 3.4908 
1 1.83665 -1.72801 3.54429 
1 7.03326 -1.86246 5.34885 
1 7.05489 -3.68658 3.55729 
1 5.30502 -3.58038 5.34663 
1 5.25374 -1.82868 3.44205 
1 5.26369 0.0219144 5.23274 
2 10.7323 -1.9439 5.45593 
1 10.5524 -3.65779 3.52474 
2 8.86066 -3.70204 5.52704 
1 8.78591 -2.06159 3.57308 
2 12.4685 -1.89653 3.49216 
1 8.81057 0.0891216 5.31308 
2 10.7341 0.0631564 3.67946 
2 14.2814 0.0672267 3.02667 
1 12.558 -3.72216 5.42212 
1 14.1336 -3.71247 3.3048 
1 14.5408 -1.63631 4.86253 
1 -8.892 -9.0235 7.21412 
1 -5.12057 -9.11299 10.5809 
1 -5.31714 -10.7201 8.89508 
1 -7.07722 -10.8872 7.18367 
2 -7.09849 -8.97106 8.98079 
1 -5.35 -9.04896 7.18555 
1 -1.75951 -12.4485 7.16927 
2 -1.79967 -8.78797 10.8094 
1 -1.83345 -10.6581 8.86882 
1 -3.58866 -10.7442 7.2606 
1 -3.48584 -8.81849 8.83976 
1 -1.80674 -8.88235 7.21301 
1 0.0164935 -9.08296 9.0308 
1 0.0456869 -10.6121 7.15603 
1 1.73106 -12.3357 7.03029 
1 1.70133 -10.7307 8.96241 
1 3.56645 -10.7416 7.14625 
1 3.48668 -9.02664 8.8596 
1 1.69315 -8.80264 7.14708 
1 1.78227 -8.95323 10.7707 
1 7.04134 -10.711 7.12066 
1 5.26036 -8.98255 10.5735 
1 5.33749 -10.7293 8.82866 
1 7.02584 -8.91595 8.98321 
1 5.21931 -8.82195 7.21311 
1 8.89183 -9.01932 7.2869 
1 -10.6094 -5.5467 9.16314 
2 -10.5833 -7.11529 7.21651 
1 -8.80382 -7.0275 8.84554 
1 -8.76414 -5.39771 7.09192 
1 -8.65483 -5.29839 10.7581 
1 -7.02894 -7.16765 10.8298 
1 -6.93475 -5.47985 8.97001 
1 -5.32807 -7.24455 8.91882 
1 -7.11411 -7.21123 7.12908 
1 -5.44943 -5.28001 7.12741 
1 -5.48824 -5.38898 10.9259 
2 -3.68733 -7.09277 10.8568 
1 -1.92509 -5.2491 10.7804 
1 -1.90995 -7.07656 9.09065 
2 -3.71595 -5.39629 8.89034 
1 -3.68088 -7.24265 7.09195 
1 -1.85923 -5.48317 7.23981 
2 0.054353 -5.39643 9.0918 
1 0.00645524 -7.18241 10.708 
1 -0.0965371 -7.20255 7.30545 
1 3.71894 -7.04721 10.8216 
1 1.81852 -5.14887 10.5966 
1 1.85203 -7.27825 9.05078 
1 3.68173 -5.26776 9.07687 
1 3.49032 -7.25382 7.25585 
2 1.8755 -5.43239 7.24366 
1 7.10518 -6.91664 10.7699 
1 5.43723 -5.2792 10.7297 
1 5.36734 -7.13357 8.98021 
1 7.11192 -5.31668 8.81732 
1 7.181 -7.19602 7.175 
2 5.27764 -5.47504 7.23549 
1 8.88399 -5.07655 10.705 
1 10.4536 -5.46336 9.03757 
1 10.6345 -7.15868 7.23443 
1 8.72957 -7.26002 9.008 
1 8.95351 -5.44926 7.20196 
2 -12.0922 -1.78941 7.26915 
1 -9.19789 -1.78125 10.5624 
1 -10.9829 -3.02384 9.55901 
2 -10.6711 -3.94907 7.29844 
1 -8.7134 -3.7392 9.06382 
2 -9.06277 -1.83325 7.50342 
1 -11.151 -0.592974 9.51248 
1 -7.05708 -3.45933 10.6846 
1 -5.34909 -1.71146 10.8236 
1 -7.15976 -1.67083 9.02738 
2 -5.30594 -3.37403 8.97227 
1 -7.19866 -3.4975 7.20535 
1 -5.39548 -1.67745 7.27229 
1 -3.66707 -3.52036 10.8065 
1 -1.75846 -1.61714 10.6911 
1 -3.67787 -1.59692 9.05747 
2 -1.93993 -3.42621 9.11085 
1 -3.55448 -3.56725 7.14955 
1 -1.80592 -1.65116 7.23221 
1 3.58686 0.109079 7.17051 
2 -0.107331 -3.43266 7.26988 
1 0.031785 -1.714 9.08798 
1 -0.0700398 -3.39074 10.9727 
1 1.92267 -1.72648 7.16101 
2 3.57898 -3.5238 7.10333 
1 1.75618 -1.71331 10.7233 
1 1.74546 -3.41729 8.98683 
1 3.57924 -1.70716 8.90133 
1 3.55555 -3.45481 10.5769 
1 7.16533 -3.47455 10.6304 
1 5.31205 -3.52149 8.858 
1 6.93657 -3.5979 7.0494 
1 5.4263 -1.51567 10.6459 
1 7.12872 -1.67464 8.85933 
1 5.39488 -1.65611 7.06283 
1 7.39475 -0.0151442 10.7039 
1 5.46223 0.0250887 8.8808 
1 8.84614 -1.78403 7.06058 
1 8.81299 -3.50514 8.74942 
1 9.04485 -1.78951 10.4548 
1 10.9672 -3.99048 7.13608 
2 10.752 -2.02472 8.66881 
2 12.7746 -1.65412 6.92804 
1 0.0433734 -8.72878 12.4452 
1 0.0933534 -6.85115 14.0755 
1 -0.108013 -5.32199 12.3427 
1 -3.66007 -5.22168 12.6411 
1 -1.87608 -6.91034 12.5941 
1 3.64008 -5.08863 12.3425 
1 1.81031 -5.19489 14.1882 
2 1.80932 -6.92748 12.2713 
1 -5.31908 -3.39285 12.5604 
1 -7.09233 -1.76596 12.5917 
1 -3.3661 -1.74157 12.4444 
1 -1.99407 -3.42178 12.4052 
1 -1.81134 -1.80073 14.2604 
2 -0.172679 -3.57494 13.9401 
1 3.53428 -0.0498215 14.2145 
1 -0.0302051 -1.66052 12.4697 
1 1.70744 -1.88308 14.155 
1 1.83893 -3.55847 12.4114 
1 3.45097 -1.81168 12.5517 
1 -0.0184212 0.00395663 14.168 
1 1.79079 0.0164774 12.528 
1 7.13824 -1.74879 12.2629 
2 5.28281 -3.30472 12.259 
1 5.41768 0.0880948 12.7407 
1 -7.52785 1.60035 -12.309 
1 -5.66106 3.41992 -12.7393 
1 -5.33917 0.065048 -12.6616 
2 -1.89923 2.03661 -14.2137 
2 -3.5542 1.94783 -12.4745 
1 -1.79246 3.83423 -12.4409 
2 0.0572818 1.83815 -12.4155 
2 -0.0304154 0.234669 -14.3597 
1 0.174671 3.59802 -14.1716 
1 3.53597 3.55867 -14.2592 
1 3.58953 1.83843 -12.4774 
2 1.85523 3.69872 -12.4768 
1 1.96726 1.83034 -14.356 
2 1.82562 -0.000311402 -12.3852 
1 5.16843 1.80752 -14.2914 
1 7.20114 1.90379 -12.5317 
1 5.41328 3.60798 -12.5137 
2 5.4658 0.0272679 -12.4924 
1 -2.05412 6.86432 -12.5883 
1 -3.7391 5.1675 -12.563 
1 0.090226 5.47827 -12.5527 
1 1.76279 7.26879 -12.3366 
1 3.64768 5.43264 -12.5068 
1 -12.2011 1.99177 -7.22665 
1 -11.1696 3.10727 -9.29608 
1 -9.32852 1.75091 -10.5229 
2 -8.93458 3.88163 -9.10154 
2 -9.30488 1.99636 -7.47357 
1 -10.7045 4.03205 -6.90304 
1 -11.1966 0.797259 -9.29527 
1 -8.92714 -0.177891 -8.80591 
1 -10.7614 -0.0425224 -7.09998 
1 -7.26086 3.40499 -10.8021 
2 -5.44128 1.6472 -10.7818 
2 -7.29778 1.76626 -8.93938 
1 -5.45725 3.50741 -8.94383 
1 -7.26908 3.6505 -7.25196 
2 -5.35636 1.79677 -7.08366 
1 -7.22306 0.0659785 -7.10036 
1 -7.23947 -0.0790686 -10.6176 
1 -3.74215 3.61564 -10.7292 
1 -1.79082 1.84201 -10.7615 
1 -3.60642 1.73778 -8.99777 
2 -1.80271 3.51808 -8.90739 
2 -3.60749 3.53319 -7.01467 
1 -1.85543 1.80007 -7.11083 
1 -0.00214072 1.86583 -8.95335 
1 -0.0590348 3.75959 -10.7927 
1 -0.222259 3.59492 -7.07497 
1 -3.54925 -0.0231932 -10.7638 
1 -1.88518 0.112725 -9.03602 
1 -0.267902 -0.0527045 -7.1019 
1 -3.52702 0.0125129 -7.08873 
1 3.63394 3.57155 -10.7246 
1 1.83064 1.84515 -10.698 
1 3.60504 1.98847 -8.99081 
2 1.73423 3.78715 -9.01594 
1 3.49631 3.59623 -7.0803 
2 1.62612 1.80423 -7.19006 
1 3.59569 0.154644 -10.7369 
1 3.59455 -0.00775627 -7.14547 
2 1.76352 -0.0277594 -9.03106 
2 7.15516 3.69086 -10.5745 
1 5.5557 1.91465 -10.709 
1 7.0943 1.86503 -8.84577 
1 5.3797 3.59889 -8.89071 
1 7.10747 3.56489 -7.002 
1 5.25878 1.80533 -7.06185 
2 7.34261 0.0361638 -10.6833 
2 5.33267 0.0500757 -8.89864 
2 7.10374 -0.00180372 -7.09439 
1 9.04449 1.96152 -10.4586 
2 10.7311 1.70814 -8.83971 
1 8.89461 3.52643 -8.70622 
1 8.87463 1.80592 -7.0283 
1 10.8282 3.49986 -7.09705 
2 12.4458 1.69194 -6.93914 
1 10.3403 -0.124664 -10.6879 
1 -10.6588 5.64435 -8.93003 
1 -10.7611 7.11915 -6.89774 
1 -8.8677 7.08848 -8.94023 
1 -8.90567 5.49353 -7.11089 
1 -8.57294 5.58849 -10.9306 
2 -5.63476 5.17033 -10.8968 
1 -6.99652 7.3041 -10.6713 
1 -7.12947 5.38904 -8.97367 
1 -5.27505 7.16229 -9.00583 
2 -6.99889 7.25066 -7.24406 
1 -5.42753 5.41303 -7.19381 
2 -3.69867 7.14649 -10.793 
1 -1.90565 5.43465 -10.7945 
1 -1.94525 7.15688 -8.86919 
2 -3.75169 5.26218 -8.94335 
1 -3.67653 7.09195 -7.06148 
1 -1.85828 5.3698 -7.03536 
2 -0.174436 5.50722 -8.96739 
1 -0.0132963 7.29439 -7.08502 
1 -0.115427 7.25353 -10.8134 
1 3.62463 7.22962 -10.748 
1 1.85657 5.46533 -10.7848 
2 1.76047 7.20494 -8.99368 
1 3.56291 5.35221 -8.98139 
1 3.41481 7.15009 -6.99099 
1 1.73201 5.5133 -7.1905 
1 7.07013 7.00553 -10.5797 
1 5.34312 5.43444 -10.7542 
1 7.06463 5.3998 -8.81291 
1 5.18525 7.01827 -8.80378 
1 6.9692 7.15135 -7.16982 
1 5.27779 5.3031 -7.23777 
1 8.98146 5.22484 -10.5284 
1 10.6784 5.22038 -8.74243 
1 8.85739 7.16152 -8.72297 
1 8.82562 5.37633 -7.16788 
2 10.5987 7.04541 -6.88072 
1 -8.8265 8.97171 -7.10048 
1 -5.26569 9.0492 -10.7514 
1 -5.19977 10.7376 -8.87413 
1 -7.07774 9.02949 -8.99302 
1 -5.41263 9.02794 -7.07822 
1 -7.06232 10.7468 -7.10081 
2 -2.07482 8.85206 -10.629 
2 -1.99806 10.6235 -9.04445 
1 -3.75471 10.7519 -7.08328 
1 -3.63212 8.79299 -8.77782 
1 -1.96527 8.9262 -7.10248 
1 -0.191742 10.7845 -7.38585 
1 -0.0410583 10.4052 -10.6988 
1 -0.137175 8.94749 -8.8386 
1 1.8983 9.07011 -10.7243 
1 1.60118 10.8343 -8.94334 
1 3.36717 10.8171 -7.19813 
1 3.37627 9.02255 -8.84112 
1 1.68827 9.01599 -7.10939 
1 5.26162 9.00557 -10.3947 
1 5.27387 10.7103 -8.873 
1 7.04183 10.6021 -7.16377 
1 7.18475 8.86577 -8.99237 
1 5.17826 8.9366 -7.23708 
1 8.83984 8.85627 -7.16678 
1 -1.93168 12.408 -7.12845 
2 1.66588 12.5758 -7.148 
2 -13.8909 3.70543 -3.31417 
1 -14.3082 -0.176563 -3.56393 
2 -12.3944 3.80439 -5.32537 
1 -12.3511 1.81291 -3.54366 
1 -12.5198 0.109546 -5.29294 
2 -10.7116 1.91993 -5.28721 
1 -10.8124 3.77677 -3.49121 
1 -8.94306 3.77651 -5.42631 
2 -8.94478 1.93669 -3.43102 
1 -5.28548 -0.0697145 -5.38 
1 -7.37498 1.99442 -5.40381 
2 -7.0437 3.74807 -3.64199 
1 -5.42237 3.69881 -5.46114 
1 -5.48553 1.78437 -3.72086 
2 -7.15824 0.0426132 -3.5856 
1 -3.565 1.69399 -5.21188 
1 -1.86175 3.55892 -5.19028 
1 -3.64262 3.62909 -3.461 
1 -1.83792 1.72402 -3.57764 
1 -0.112754 1.64386 -5.24685 
1 -0.126506 3.82316 -3.50634 
1 -3.68091 0.00517396 -3.59517 
1 -0.07536 0.0349417 -3.50195 
1 -1.76903 -0.043026 -5.23927 
1 3.61301 1.76727 -5.37084 
2 1.64541 3.62098 -5.38892 
1 3.54916 3.67201 -3.60097 
2 1.72937 1.78853 -3.61589 
1 3.53092 0.0823649 -3.58536 
1 1.76551 0.0400658 -5.42784 
1 6.92947 1.78685 -5.26493 
1 7.03308 3.54021 -3.66659 
1 5.30651 3.59992 -5.34589 
1 5.30035 1.86213 -3.53949 
1 7.07678 -0.101926 -3.54344 
1 10.7088 1.83535 -5.20628 
1 10.6033 3.62189 -3.53053 
2 8.90609 3.45029 -5.31337 
1 8.83133 1.82471 -3.52338 
1 12.3545 1.76667 -3.4983 
1 12.4849 3.55711 -5.28174 
1 14.0934 3.37691 -3.44185 
1 -12.6711 5.74929 -3.43045 
1 -10.9142 7.37008 -3.21197 
1 -10.7481 5.67512 -5.01721 
2 -8.82705 7.28938 -5.24116 
1 -8.90732 5.46189 -3.53678 
1 -7.1395 7.17239 -3.48757 
1 -7.11497 5.50655 -5.36318 
1 -5.41067 7.307 -5.28771 
1 -5.30176 5.43303 -3.60649 
1 -1.82005 7.168 -5.3543 
1 -3.59482 7.12218 -3.48744 
1 -3.57796 5.40932 -5.30828 
1 -1.79531 5.43806 -3.55974 
2 -0.0385022 7.16739 -3.59863 
1 -0.116351 5.42856 -5.37288 
1 1.66341 7.2624 -5.34082 
2 3.38274 7.24307 -3.58266 
1 3.4653 5.3583 -5.41163 
1 1.67685 5.47199 -3.54345 
1 6.92675 7.19909 -3.65144 
1 7.1568 5.39238 -5.33635 
2 5.25528 7.14788 -5.43295 
1 5.28007 5.39523 -3.69392 
1 10.5858 7.09576 -3.46884 
1 10.5966 5.33724 -5.23746 
1 8.73924 7.13638 -5.31952 
1 8.76497 5.40386 -3.59445 
2 12.3803 5.35673 -3.32313 
1 -10.6722 8.79251 -5.08417 
1 -8.87878 10.6668 -5.11287 
1 -8.79921 8.87715 -3.32445 
1 -10.4676 10.4654 -3.30384 
1 -7.16008 10.7529 -3.448 
1 -5.46605 10.7503 -5.25891 
1 -7.15653 9.004 -5.29679 
1 -5.39013 9.0237 -3.5082 
1 -5.34561 12.4996 -3.5253 
1 -1.99015 10.7917 -5.34212 
1 -3.60706 10.7416 -3.50923 
2 -3.63509 8.92102 -5.25175 
1 -1.90688 8.91229 -3.53785 
1 -1.82781 12.5253 -3.51637 
1 -3.69086 12.5332 -5.38124 
1 -0.197821 10.7733 -3.54322 
1 -0.237288 9.02636 -5.35942 
2 1.52765 10.7475 -5.37683 
1 3.40395 10.89 -3.62776 
1 3.45712 9.02814 -5.49248 
1 1.65602 9.18282 -3.50827 
1 1.62352 12.4129 -3.43963 
1 7.1112 11.0541 -3.56638 
2 5.29001 10.925 -5.3584 
1 7.06102 8.9483 -5.35275 
2 5.2185 9.09366 -3.60829 
1 10.5685 8.76916 -5.14736 
1 8.82786 10.7137 -5.27501 
1 8.68689 9.02713 -3.51648 
1 -0.266565 12.6263 -5.45267 
1 -3.46866 14.176 -3.66284 
1 -0.132011 14.2341 -3.56836 
1 3.52851 12.6671 -5.30746 
2 1.66034 14.1862 -5.16619 
1 3.35944 14.4436 -3.47925 
1 5.35503 12.8359 -3.64723 
1 -14.1664 3.30766 -0.116861 
1 -14.0425 1.633 -1.78008 
1 -14.1061 1.76715 1.98894 
2 -12.4466 3.55736 1.72845 
1 -12.259 0.0661932 -1.79234 
1 -12.3149 3.58305 -1.61334 
2 -12.2177 -0.0673162 1.89961 
1 -12.3628 1.63084 0.0963739 
1 -10.5295 -0.0320037 -0.0185547 
2 -10.5703 3.68473 0.00319895 
1 -10.6768 1.88039 -1.71764 
1 -10.6059 1.94492 1.82435 
1 -8.87369 3.76099 -1.82321 
1 -8.90713 3.63429 1.7668 
1 -8.74402 1.9262 -0.0997417 
1 -8.97484 -0.0538667 -1.80728 
1 -5.48093 0.125615 -1.82785 
1 -7.04037 3.7275 -0.00336747 
1 -7.12906 1.88415 -1.77252 
1 -7.24264 1.95546 1.67586 
1 -5.35885 3.65724 -1.72186 
1 -5.45604 3.55862 1.83969 
1 -5.45721 1.85183 -0.0921595 
1 -7.27969 0.0680258 -0.115315 
2 -5.46042 0.0960544 1.8347 
2 -3.66822 3.59254 0.0907929 
1 -3.72299 1.77128 -1.80305 
2 -1.8147 3.50483 -1.7285 
1 -3.63659 1.79098 1.9141 
1 -1.79363 3.65125 1.79167 
1 -1.84231 1.75967 0.0707727 
1 -0.135906 3.54825 0.0214853 
1 -0.146199 1.7 -1.82308 
1 -0.119418 1.77161 1.77804 
1 -1.90964 -0.019506 -1.83521 
1 -3.56714 -0.000165858 0.065498 
1 -1.81492 0.0902682 1.96545 
2 3.68213 3.64189 -0.142019 
1 3.60368 1.67601 -1.9163 
2 1.63495 3.68815 -1.83636 
1 3.53128 1.75297 1.68917 
1 1.7694 3.58621 1.75144 
2 1.69807 1.72057 0.00651552 
1 7.10037 3.76986 -0.13341 
1 7.09814 1.83458 -1.91278 
1 7.17736 1.79828 1.81823 
1 5.33227 3.60536 -1.90973 
1 5.33784 3.53966 1.80498 
2 5.47584 1.81304 -0.0311281 
1 5.46076 -0.0399941 -1.84907 
1 10.4598 3.67439 -0.0033826 
1 10.6373 1.86652 1.54033 
2 10.5044 1.81666 -1.74861 
1 8.82089 3.6734 -1.95035 
1 8.8002 3.53628 1.64171 
1 8.73049 1.92412 -0.0530882 
1 12.4605 1.86783 0.240327 
1 12.2997 3.51967 -1.64281 
1 8.86427 0.0212769 -1.80437 
2 12.2921 -0.0546453 -1.50788 
1 12.4284 3.80785 1.66784 
1 14.1918 3.79376 -0.102333 
2 14.1368 1.6655 -1.55691 
1 14.406 2.39119 1.82329 
1 14.2084 0.160686 0.505688 
1 -12.4931 5.34516 0.0551683 
1 -12.6981 7.10828 -1.41216 
1 -12.043 7.17291 1.93328 
1 -10.6233 6.98785 -0.141351 
1 -10.7165 5.40779 -1.87346 
1 -10.6422 5.24286 1.85013 
1 -8.85982 7.16562 -1.73487 
2 -9.06641 7.09912 1.79476 
1 -8.70562 5.43798 -0.00711019 
1 -7.02262 7.14111 -0.0249516 
1 -7.06976 5.36154 -1.78371 
2 -5.34432 7.15256 -1.73604 
1 -7.02149 5.37665 1.83317 
1 -5.3069 7.17042 1.88327 
1 -5.29816 5.39513 0.0581275 
1 -3.51928 7.17936 0.111195 
1 -1.83343 7.25368 -1.74081 
1 -1.79886 7.18799 1.87453 
1 -3.60466 5.43636 -1.73484 
1 -3.68665 5.40559 1.84757 
2 -1.80266 5.4007 0.0386508 
1 -0.131959 7.29466 -0.00425703 
1 -0.113646 5.43732 1.78867 
1 -0.130526 5.58675 -1.72906 
1 3.40092 7.13224 -0.186507 
1 1.60833 7.3049 -1.67573 
2 1.67068 7.17392 1.6235 
1 3.49227 5.36668 -1.92432 
2 3.44979 5.37244 1.62351 
1 1.48367 5.31147 -0.0168324 
1 7.0128 7.20319 -0.102992 
1 7.05933 5.37427 -1.99021 
2 5.28907 7.14174 -1.8609 
1 6.99658 5.46866 1.65019 
1 5.27734 7.16733 1.70012 
1 5.35279 5.35142 -0.004552 
1 10.4637 7.22451 -0.256892 
1 10.6044 5.47917 1.6271 
1 10.4849 5.35846 -1.7377 
1 8.72013 7.179 -1.95042 
2 8.85711 7.12854 1.54168 
1 8.70872 5.49205 -0.0852858 
1 12.244 7.25547 -1.63738 
1 12.3611 5.48412 -0.152243 
2 12.3807 7.33873 1.37909 
2 -8.85373 10.6743 -1.38275 
1 -8.8742 10.6771 1.58495 
2 -10.7376 9.02932 -1.38644 
1 -10.6605 9.16518 1.33206 
1 -8.65635 8.76334 0.0526653 
1 -7.02398 10.6742 0.112337 
1 -5.27582 10.7465 1.78466 
1 -5.31324 10.8436 -1.75619 
1 -7.08619 8.96283 -1.79749 
1 -7.03467 8.92678 1.71857 
1 -5.40698 8.93813 -0.00143651 
1 -7.14596 12.4933 -1.71469 
1 -3.50278 10.8303 0.0443658 
2 -1.88836 10.7785 1.97979 
1 -1.82117 10.7158 -1.74023 
1 -3.50468 9.07577 -1.72508 
2 -3.63806 8.95007 1.81522 
1 -1.89728 8.90429 0.00921058 
1 -3.45203 12.4994 -1.79657 
2 -0.0374531 9.06484 -1.76405 
1 -0.109588 9.10335 1.81818 
1 -0.166306 10.7145 0.0521506 
1 3.40614 10.8005 0.0544616 
1 1.65606 10.7777 1.79337 
1 1.65688 10.7778 -1.80697 
1 3.35996 9.0879 -1.79795 
1 3.52565 8.97895 1.67447 
1 1.6975 9.06353 -0.0130887 
1 6.85772 10.7403 -0.0410041 
1 5.29592 10.7129 1.70768 
2 5.21885 10.9017 -1.92253 
1 7.07131 9.07542 -1.88005 
1 7.099 9.05751 1.6514 
2 5.19964 8.96142 -0.115792 
1 10.6347 9.08233 -1.63794 
2 10.6075 9.03602 1.19851 
2 8.91583 10.7739 1.35214 
1 8.74451 10.867 -1.64147 
1 8.58481 8.96694 -0.153713 
2 -5.34168 12.5011 0.0391401 
1 -7.05356 12.4619 1.73678 
2 -5.11486 14.2066 -1.79563 
1 -0.180244 12.4875 -1.779 
1 -1.90401 12.5313 0.0366849 