ITEM: TIMESTEP
10000
ITEM: NUMBER OF ATOMS
1289
ITEM: BOX BOUNDS pp pp pp
-100 100
-100 100
-100 100
ITEM: ATOMS type x y z 
1 -1.69454 -7.00653 -12.5075 
1 -3.50418 -5.42362 -12.465 
1 0.0618582 -5.27044 -12.5532 
1 1.73008 -7.13512 -12.4753 
1 3.46253 -5.29619 -12.5301 
1 -7.1148 -1.70162 -12.2837 
2 -5.62932 -3.61989 -12.4332 
1 7.08497 -1.80668 12.5124 
2 -3.6426 -3.45812 -14.0263 
1 -1.61328 -1.91154 -14.4786 
2 -3.60681 -1.73652 -12.3325 
1 -1.67203 -3.50932 -12.3722 
2 -1.61658 -0.142609 -12.5206 
1 -3.52107 -0.247701 -14.3564 
1 0.0859792 -1.77775 -12.4376 
1 0.073788 -3.49038 -14.1423 
2 2.02703 -1.79537 -14.3353 
1 1.85157 -3.6282 -12.4805 
1 3.49298 -1.78234 -12.2798 
1 0.0757642 -0.230883 -14.7102 
1 4.87278 -1.55234 -14.2523 
2 6.94577 -1.76314 -12.563 
2 5.16106 -3.54168 -12.402 
1 -1.72977 -12.6622 -6.90703 
1 -8.75787 -9.07141 -6.87204 
2 -5.26504 -10.7999 -8.64918 
1 -5.16241 -9.02235 -10.6044 
1 -7.13378 -10.7396 -7.0934 
1 -7.11561 -9.09302 -8.95437 
1 -5.2833 -8.96389 -7.1967 
1 -1.81479 -10.9784 -8.78252 
1 -1.79509 -9.03975 -10.8037 
1 -3.47741 -10.7908 -6.98064 
2 -3.43105 -9.08895 -8.83873 
1 -1.7459 -8.98413 -7.08595 
2 0.0406436 -10.7608 -7.03485 
1 1.88089 -12.6612 -6.99878 
1 -0.105265 -10.9091 -10.333 
1 -0.102045 -9.03864 -9.02262 
2 1.85796 -10.7728 -8.7514 
1 1.80256 -9.16744 -10.7906 
1 3.67604 -10.7791 -7.13488 
2 3.602 -8.98167 -9.01721 
1 1.79652 -8.97445 -7.05782 
1 5.39825 -10.6645 -8.86824 
1 5.30463 -8.865 -10.7697 
1 7.19927 -10.6397 -7.13714 
1 7.12973 -8.83608 -8.85221 
1 5.348 -8.87499 -7.12498 
1 8.87758 -8.88022 -7.06179 
1 -10.6765 -5.60969 -8.74134 
1 -8.8065 -5.62181 -10.4617 
2 -10.6339 -7.26955 -6.92405 
1 -8.79189 -7.36731 -8.90573 
2 -8.82828 -5.41036 -7.2368 
1 -6.82624 -7.33629 -10.5602 
1 -5.32245 -5.56768 -10.9553 
1 -6.88088 -5.42617 -8.94996 
1 -5.17276 -7.30928 -8.9356 
2 -6.92937 -7.18485 -7.24945 
1 -5.19763 -5.26464 -7.18657 
2 -3.57503 -7.20733 -10.7401 
1 -1.81238 -5.38754 -10.8858 
1 -1.8068 -7.13006 -8.9704 
1 -3.55151 -5.45393 -8.92916 
1 -3.53285 -7.21246 -7.22014 
2 -1.80315 -5.44955 -7.09413 
1 -0.120662 -7.32151 -10.8063 
2 -0.0190748 -5.40605 -9.06886 
2 -0.0398411 -7.34985 -7.15264 
2 3.48708 -7.10543 -10.7435 
1 1.70423 -5.27724 -10.6909 
1 1.78662 -7.23182 -8.9017 
1 3.45229 -5.39918 -8.99127 
1 3.54392 -7.21266 -7.12222 
2 1.82731 -5.35519 -7.21153 
1 7.09928 -7.17511 -10.7452 
1 5.34443 -5.46508 -10.8227 
1 5.36032 -7.12198 -8.94199 
1 6.9359 -5.36286 -8.89331 
1 7.04901 -7.06682 -7.07452 
1 5.1068 -5.34535 -7.17606 
1 8.81795 -5.40921 -10.5793 
1 10.5594 -5.33662 -8.65869 
1 10.8093 -7.03948 -7.04459 
2 8.7093 -6.95922 -8.83145 
1 8.82282 -5.28265 -7.07998 
1 -12.5507 -1.87397 -6.95703 
1 -10.8839 -1.81072 -8.85798 
1 -9.00964 -1.79702 -10.4789 
1 -10.8262 -3.66642 -7.28124 
1 -9.08489 -3.7466 -9.06467 
1 -8.9453 -2.12534 -7.20299 
1 -8.99995 -0.173131 -8.68287 
1 -10.7865 -0.219488 -7.11971 
1 -7.14941 -3.71468 -10.6945 
1 -5.37472 -1.86573 -10.5264 
1 -7.17238 -1.95525 -8.92692 
1 -5.21515 -3.73677 -9.00022 
1 -7.09359 -3.74365 -7.33879 
1 -5.24605 -2.09324 -7.26426 
1 -7.29586 -0.154398 -10.6046 
1 -7.07054 -0.130826 -7.28357 
1 -3.70239 -3.70083 -10.8249 
1 -1.80577 -1.75954 -10.6326 
1 -3.56463 -1.87441 -9.04919 
2 -1.94993 -3.62339 -9.08297 
1 -3.4071 -3.64339 -7.12529 
1 -1.87563 -1.71257 -7.16418 
1 -1.82424 0.0296228 -8.8633 
2 5.21236 -3.47039 12.5448 
1 -0.0902309 -1.81889 -8.96386 
1 0.0601786 -0.192661 -7.17768 
1 -0.00411737 -3.55389 -7.17994 
1 0.017946 -3.49453 -10.7671 
1 3.57425 -3.6095 -10.5876 
1 1.72692 -1.85191 -10.6736 
1 1.6169 -3.48135 -8.85019 
2 3.48688 -1.78232 -8.87044 
1 3.46154 -3.5609 -7.19757 
1 1.85754 -1.77349 -7.08918 
2 1.69254 0.120445 -9.00264 
1 3.54632 0.0342085 -7.12267 
1 0.0133013 -1.69731 12.445 
1 0.0194048 -0.00946708 -10.6605 
1 7.01295 -3.71109 -10.6229 
1 5.29422 -1.74221 -10.6731 
1 7.0489 -1.88581 -8.9981 
1 5.22723 -3.5965 -8.78858 
1 7.00335 -3.63642 -7.08594 
1 5.38147 -1.77933 -7.11064 
2 7.26156 0.101837 -10.8416 
2 5.3293 0.116924 -8.8559 
1 8.67978 -2.13659 -10.6328 
1 10.6269 -1.77054 -9.0934 
1 10.7223 -3.43955 -7.04455 
1 8.84029 -3.69476 -8.80191 
2 8.7322 -1.94455 -7.13351 
1 3.06929 -3.66266 14.1902 
1 1.69264 -1.63616 14.3032 
2 10.5282 0.0253643 -7.30047 
1 12.3678 -1.50606 -7.34188 
1 -5.34186 -12.5353 -3.55687 
1 -3.33436 -14.3204 -3.25016 
1 -3.57327 -12.7029 -5.26948 
2 -0.123529 -14.1916 -3.48938 
1 3.6923 -14.3141 -3.25278 
2 1.88527 -12.5968 -3.47178 
1 3.61612 -12.6857 -5.26525 
1 -10.5979 -9.05293 -5.06353 
1 -8.7502 -10.7021 -5.19285 
2 -8.81927 -8.91909 -3.47819 
1 -7.09545 -10.7565 -3.5213 
1 -5.38946 -10.8295 -5.37843 
1 -6.9483 -9.07814 -5.29494 
1 -5.17595 -8.88464 -3.51837 
1 -1.88683 -12.5764 -3.57427 
1 0.0204812 -12.5681 -5.32804 
2 -1.83865 -10.6922 -5.22412 
1 -3.63122 -10.7849 -3.5467 
1 -3.58246 -8.97798 -5.40535 
2 -1.80298 -8.77882 -3.53336 
1 0.0216975 -8.95326 -5.2543 
2 0.134662 -10.6253 -3.47202 
1 1.97514 -10.7769 -5.37096 
1 3.61897 -10.6599 -3.56763 
1 3.69262 -8.93481 -5.36372 
1 1.89044 -8.9072 -3.59003 
1 5.37769 -12.551 -3.57037 
2 7.06927 -10.7634 -3.56786 
1 5.39086 -10.7973 -5.44364 
1 6.9466 -8.97841 -5.41375 
2 5.27995 -8.86398 -3.58229 
1 8.87406 -10.5767 -5.4452 
1 10.7976 -8.76955 -5.41019 
2 8.84248 -8.89345 -3.56841 
1 -12.5573 -5.39902 -3.53397 
1 -10.612 -6.96853 -3.70199 
1 -10.8293 -5.41802 -5.42317 
2 -8.69034 -7.12836 -5.28776 
1 -8.78544 -5.3199 -3.60618 
1 -6.94383 -7.12023 -3.60642 
1 -7.03446 -5.36825 -5.36174 
1 -5.31659 -7.14629 -5.36982 
1 -5.31651 -5.28125 -3.52659 
1 -1.75916 -7.16258 -5.3939 
1 -3.67887 -7.11794 -3.58747 
1 -3.52699 -5.48483 -5.3532 
1 -1.94325 -5.42135 -3.55451 
1 0.0278288 -7.05892 -3.65575 
2 -0.0399662 -5.28787 -5.24111 
2 1.83846 -7.20733 -5.2811 
1 3.65899 -7.08742 -3.62739 
1 3.59035 -5.33958 -5.28052 
1 1.8285 -5.3103 -3.55674 
1 6.95372 -7.03836 -3.49139 
1 5.23918 -6.98372 -5.39879 
1 6.96869 -5.31285 -5.43362 
1 5.35313 -5.22073 -3.58017 
1 10.7394 -6.96743 -3.66281 
1 10.8026 -5.36966 -5.38467 
2 8.95868 -7.06361 -5.40221 
2 8.89916 -5.29347 -3.61879 
1 12.5048 -5.225 -3.43281 
1 -14.023 -3.56411 -3.4693 
1 -12.5767 -3.77866 -5.46902 
2 -12.4569 -1.71161 -3.69247 
1 -10.5885 -1.95254 -5.50629 
2 -10.7772 -3.73395 -3.62658 
1 -8.88215 -3.81372 -5.39345 
2 -8.8083 -1.90329 -3.61102 
2 -7.0936 -1.97274 -5.54916 
1 -7.03529 -3.56317 -3.69899 
1 -5.24725 -3.57567 -5.39663 
1 -5.24177 -1.66241 -3.53559 
1 -5.31436 -0.185311 -5.41171 
1 -3.62046 -1.89302 -5.41631 
1 -1.85246 -3.62047 -5.19589 
1 -3.59003 -3.44483 -3.54841 
1 -1.87619 -1.75764 -3.66054 
1 0.0205498 -1.85472 -5.47424 
1 -1.86752 -0.0956654 -5.39016 
1 -0.0055229 -3.40343 -3.67786 
1 1.80445 -3.66515 -5.30011 
1 3.46863 -1.69302 -5.34103 
1 3.50508 -3.52064 -3.59128 
2 1.73844 -1.78316 -3.55724 
1 1.69467 0.0173967 -5.41382 
1 1.70944 -3.47961 12.376 
1 7.03246 -1.79986 -5.40881 
1 7.10848 -3.60232 -3.68808 
1 5.25846 -3.5531 -5.37935 
1 5.31882 -1.81407 -3.61155 
1 5.31193 -0.105484 -5.30628 
1 3.47415 -1.79983 12.5175 
1 10.6631 -1.65901 -5.42214 
1 10.6328 -3.44498 -3.67957 
1 8.78089 -3.54342 -5.35661 
1 8.75574 -1.77325 -3.63586 
1 12.2458 -1.64476 -3.48723 
2 -0.178148 -3.4549 14.1646 
2 12.4944 -3.29422 -5.35716 
2 14.0948 -3.15966 -3.47844 
1 -3.61981 -3.1883 14.0908 
1 -5.10356 -12.4274 0.000694429 
1 -3.73399 -14.1917 0.550632 
1 -1.83599 -14.351 -1.55709 
1 -1.63102 -14.1871 1.65398 
1 0.0589855 -14.2973 -0.0623243 
1 3.66825 -14.3202 0.133881 
1 1.91292 -14.3468 -1.53182 
2 1.66557 -14.1452 1.69558 
1 3.50691 -12.4026 1.76835 
1 -11.1883 -9.43739 0.41389 
1 -10.5974 -8.90885 -2.08201 
1 -8.8844 -10.6001 -1.56607 
2 -9.06477 -10.6385 1.49156 
1 -8.8531 -8.77134 -0.118219 
2 -7.00031 -12.3534 -1.56475 
2 -7.13109 -12.4078 1.43217 
1 -7.05978 -10.3694 -0.0551655 
2 -5.21252 -10.5137 -1.66811 
2 -5.29063 -10.6391 1.61619 
1 -7.11705 -8.86988 -1.89052 
1 -7.13664 -8.83137 1.72557 
1 -5.17548 -8.83753 -0.0111734 
1 -3.56677 -12.5981 -1.83426 
1 -1.77754 -12.4832 -0.00776302 
1 -3.34878 -12.3902 1.7942 
1 -3.42848 -10.7185 0.024017 
1 -1.86565 -10.6583 -1.83829 
1 -1.7 -10.7001 1.86538 
1 -3.53832 -8.88587 -1.81407 
1 -3.46676 -8.78243 1.72957 
1 -1.84543 -8.79148 -0.0314788 
1 -0.00337383 -12.3881 1.7773 
2 -0.102236 -12.4147 -1.76939 
1 -0.0470338 -8.72122 -1.77863 
1 -0.0882702 -10.5307 -0.106092 
1 3.62171 -12.3852 -1.62108 
1 -0.10787 -8.78572 1.83105 
2 1.71565 -12.3041 -0.0250862 
1 3.62001 -10.6284 0.123676 
1 1.82906 -10.502 -1.79873 
1 1.60024 -10.4901 1.73201 
1 3.59344 -8.92619 -1.66788 
1 3.64845 -8.87371 1.72339 
1 1.72138 -8.87897 0.0883533 
1 7.0973 -12.4373 1.85171 
1 5.31246 -12.3896 0.0874431 
2 6.9505 -12.4512 -1.65384 
1 7.27265 -10.7533 0.056678 
1 5.37359 -10.6449 -1.73805 
1 5.39876 -10.7516 1.80486 
1 7.08849 -8.73535 -1.78911 
2 7.19913 -8.97558 1.72489 
1 5.33251 -8.87292 -0.0453012 
1 10.4604 -10.6186 -0.0490039 
1 8.87021 -10.7555 -1.85742 
1 9.08848 -10.8931 1.90555 
1 10.7483 -8.77277 -1.90445 
1 10.9487 -8.96888 1.82817 
2 8.91671 -8.78599 -0.0909936 
1 -12.3524 -5.38059 -0.0384876 
1 -12.3896 -7.02622 -1.78878 
2 -12.0375 -7.24007 1.82578 
2 -10.483 -7.02557 -0.111531 
1 -10.5251 -5.31231 -1.88283 
1 -10.4603 -5.32896 1.91893 
1 -8.7741 -7.05359 -1.89126 
1 -9.06112 -7.21703 1.83216 
1 -8.79297 -5.35623 -0.133808 
1 -7.07525 -7.15157 -0.0908472 
1 -7.0771 -5.29219 -1.79232 
1 -5.27356 -7.10098 -1.78037 
2 -7.11734 -5.5789 1.8473 
1 -5.23506 -7.15734 1.73621 
1 -5.34716 -5.3661 -0.0446895 
1 -3.53518 -7.11923 -0.126176 
1 -1.70611 -7.07261 -1.73086 
1 -1.88053 -7.04942 1.88974 
1 -3.5776 -5.36843 -1.75219 
1 -3.59874 -5.33521 1.78203 
2 -1.717 -5.31618 0.0318663 
1 -0.0354306 -5.1205 1.78853 
1 -0.0244164 -5.32795 -1.98131 
1 3.61294 -7.18298 0.0640269 
2 1.74341 -7.13476 -1.67368 
1 1.7957 -7.0141 1.81556 
1 0.0676798 -7.04292 0.188012 
2 3.55995 -5.3521 -1.8193 
1 3.56199 -5.28567 1.6937 
1 1.67264 -5.32623 0.0809618 
1 7.18383 -7.18979 -0.0806684 
1 5.38698 -7.05639 -1.73746 
1 6.98934 -5.27316 -1.77851 
1 5.30449 -7.18048 1.69849 
2 7.09339 -5.55252 1.70609 
1 5.25165 -5.31004 -0.0387467 
1 10.7699 -7.20914 0.0922143 
1 10.5379 -5.29052 1.74882 
1 10.6698 -5.35799 -1.74674 
1 8.86322 -7.0212 -1.84521 
1 8.92433 -7.09929 1.70066 
1 8.89227 -5.40901 -0.091959 
2 12.5456 -5.40915 -0.106584 
1 12.3619 -7.1088 -1.94555 
1 12.4391 -7.09754 1.7725 
1 -14.0271 -3.69598 0.0121691 
2 -14.1545 -1.85147 -1.72074 
1 -14.2032 -1.72831 1.7678 
1 -14.163 -0.0580304 -0.114428 
1 -12.3756 -3.52867 -1.68509 
1 -12.2701 -1.85958 -0.0524414 
1 -12.2175 -3.59438 1.64624 
1 -10.4851 -3.64987 -0.105572 
1 -10.5661 -1.82423 -1.75494 
1 -10.5015 -1.90445 1.55666 
1 -8.92169 -3.66461 -1.8347 
2 -8.74115 -3.61222 1.78195 
1 -8.72859 -1.80965 -0.0519804 
1 -10.4764 0.0505849 -0.00257529 
1 -7.14728 -3.56886 -0.0364785 
1 -7.08226 -1.85638 -1.88916 
1 -7.00923 -1.70138 1.8067 
1 -5.22536 -3.52613 -1.78142 
2 -5.37855 -3.56478 1.87146 
2 -5.47499 -1.73668 -0.067627 
1 -3.60562 -3.5717 -0.0555002 
1 -3.47464 -1.67079 -1.69359 
2 -1.7906 -3.5419 -1.83042 
2 -3.60306 -1.76215 1.76384 
1 -1.87376 -3.54675 1.70755 
1 -1.79002 -1.89907 -0.027592 
1 -0.115192 -1.70903 -1.79871 
1 -0.146803 -1.75905 1.72251 
1 0.0150258 -3.50811 0.0186535 
1 -1.89858 -0.0559822 -1.74247 
2 1.81912 -0.0443653 1.94372 
2 3.52777 -3.51921 0.0150295 
2 1.67207 -3.63994 -1.73539 
1 3.63121 -1.71989 -1.86795 
1 1.70488 -3.49486 1.72017 
1 3.67072 -1.85211 1.92648 
1 1.78767 -1.80748 0.0293096 
1 1.73446 -0.0478237 -1.76022 
1 5.47617 -0.105096 1.82336 
1 7.09554 -3.57305 -0.069059 
1 7.0973 -1.82788 -1.75059 
1 7.07903 -1.91094 1.82313 
1 5.34387 -3.54075 -1.90643 
1 5.40068 -3.62101 1.78489 
2 5.42636 -1.83044 0.0389019 
1 -1.84349 -1.56851 14.1664 
1 7.16252 -0.0270655 0.0758495 
1 12.3466 -3.39279 -1.84007 
1 10.726 -3.67558 0.00553991 
1 10.6967 -1.91397 1.75746 
1 10.541 -1.76878 -1.83103 
1 8.95342 -3.52068 -1.79661 
1 8.8939 -3.67153 1.76371 
2 8.77951 -1.96953 0.0659651 
1 12.3895 -1.83294 -0.00376535 
1 -3.53022 0.0964036 14.0644 
2 12.5302 -3.61244 1.64001 
2 14.2267 -3.66753 -0.326606 
1 14.2565 -1.86064 1.54204 
1 14.4858 -1.72972 -1.72159 
2 -3.50491 -14.0862 3.3796 
1 -0.111365 -14.1923 3.44451 
1 3.30954 -14.1792 3.51456 
1 5.27496 -12.4049 3.61129 
1 -11.1984 -9.39921 2.93928 
1 -10.4182 -9.28828 5.29657 
2 -8.41532 -10.8143 5.46524 
2 -8.89423 -8.95253 3.44214 
2 -5.44461 -12.4247 3.36124 
1 -7.12237 -10.6465 3.30567 
1 -5.37799 -10.6729 5.27704 
1 -6.98076 -9.03991 5.41969 
2 -5.31652 -8.88716 3.5179 
2 -3.45009 -12.4092 5.29405 
1 -1.73554 -12.4062 3.61345 
1 -1.76801 -10.6537 5.30054 
1 -3.56216 -10.7069 3.52182 
2 -3.51614 -8.91177 5.37103 
1 -1.81277 -8.89178 3.57316 
2 0.0734916 -12.4873 5.38067 
1 0.0262201 -8.79096 5.2302 
1 0.0734264 -10.5996 3.64759 
1 3.50323 -12.5169 5.49932 
1 1.70553 -12.3394 3.58799 
1 1.79459 -10.7104 5.49097 
2 3.46585 -10.6586 3.5758 
1 3.46323 -9.01788 5.44042 
1 1.73278 -8.86571 3.49262 
1 7.19362 -10.6987 3.65021 
1 5.27286 -10.8207 5.43416 
2 7.09841 -8.78901 5.41799 
2 5.29216 -8.89935 3.63859 
1 8.87005 -10.5123 5.46466 
2 10.7282 -8.52621 5.27656 
2 8.96048 -8.87948 3.52537 
1 -12.3996 -5.47169 3.4738 
1 -10.6962 -7.1628 3.88191 
1 -10.6592 -5.2812 5.26633 
1 -8.66766 -7.20284 5.35576 
1 -8.84189 -5.41276 3.69768 
1 -7.16969 -7.2583 3.58967 
1 -7.16623 -5.36511 5.45462 
1 -5.34167 -7.1145 5.41094 
2 -5.3725 -5.433 3.74829 
1 -1.82614 -7.0796 5.41686 
1 -3.52797 -7.09059 3.62596 
1 -3.55293 -5.30744 5.51147 
2 -1.9285 -5.32291 3.52705 
1 -0.134408 -7.13432 3.46203 
2 0.0170381 -5.39388 5.22473 
1 1.95161 -7.17387 5.3474 
1 3.57708 -7.03288 3.56497 
1 3.53038 -5.25834 5.34382 
1 1.82949 -5.30636 3.54343 
1 7.0927 -7.1628 3.51174 
1 5.15713 -7.08217 5.39861 
2 7.05935 -5.51127 5.33934 
2 5.2997 -5.26922 3.51614 
1 10.5853 -7.08259 3.42901 
1 10.6959 -5.50157 5.31589 
1 8.91239 -7.06173 5.38906 
1 8.81078 -5.46149 3.37219 
2 12.3595 -5.29284 3.5514 
1 -13.7988 -3.45767 3.33521 
1 -12.5453 -3.23542 5.42177 
1 -3.59143 -1.63493 12.3404 
1 -12.299 -1.65971 3.51684 
1 -10.552 -1.72583 5.2971 
1 -10.8131 -3.52715 3.64294 
1 -8.9918 -3.50377 5.37239 
2 -9.00251 -1.71653 3.51707 
1 -1.8567 -3.48668 12.4078 
1 -7.13605 -1.65182 5.45522 
2 -7.09521 -3.43232 3.8233 
1 -5.33913 -3.53746 5.56911 
1 -5.39256 -1.61421 3.66541 
2 -3.52172 -1.67406 5.3063 
2 -1.83049 -3.56538 5.40877 
1 -3.68968 -3.52135 3.66424 
1 -1.82416 -1.85446 3.57881 
1 -0.104481 -3.46518 3.40481 
1 -0.0220562 -0.0196482 3.53686 
1 0.124321 -1.59857 5.41448 
1 1.77297 -3.50676 5.24983 
1 3.56631 -1.8016 5.30853 
1 3.54738 -3.57549 3.58947 
1 1.83579 -1.92275 3.57554 
1 1.92439 -0.0898287 5.25819 
1 3.71439 0.0069814 3.62669 
2 7.06505 -0.00265 3.56587 
1 7.07573 -1.79524 5.55088 
1 7.34588 -3.61345 3.48268 
1 5.45868 -3.53816 5.36136 
1 5.40779 -1.95254 3.65272 
1 -5.50142 -3.31478 12.3985 
1 -7.10943 -1.5626 12.2428 
2 10.7327 -2.04151 5.45716 
1 10.4843 -3.62618 3.58316 
2 8.81037 -3.69007 5.53916 
1 8.88549 -1.80342 3.53145 
1 12.7412 -3.7241 5.51441 
2 12.3631 -2.03361 3.57669 
1 14.2745 -3.52511 3.45286 
1 -8.79565 -8.93911 7.14928 
1 -5.32411 -8.80606 10.4612 
1 -4.90191 -10.7971 8.88944 
1 -6.62136 -11.0337 7.2051 
2 -7.09408 -9.04959 8.86843 
1 -5.27541 -8.95554 7.06175 
1 -1.7559 -12.3827 7.20316 
2 -1.88628 -8.87625 10.622 
1 -2.05113 -10.6905 8.89249 
1 -3.60116 -10.7406 7.09795 
1 -3.54412 -8.71837 8.7563 
1 -1.7785 -8.86777 7.14329 
1 -0.0598408 -10.7244 7.14232 
1 -0.0959664 -8.96226 8.78587 
1 -0.15562 -10.6953 10.4025 
1 1.6618 -12.4329 7.3413 
1 1.48143 -8.91329 10.8855 
1 1.64398 -10.6098 8.91897 
1 3.54115 -10.7618 7.25833 
1 3.40755 -8.92103 8.9137 
1 1.66173 -8.8115 7.17051 
1 4.98366 -8.90651 10.5936 
1 5.18463 -10.5945 8.76548 
1 7.02512 -10.7424 7.00282 
1 7.13484 -9.0902 8.81583 
1 5.24028 -8.88717 7.12864 
1 9.01577 -8.79362 7.21589 
1 -8.88249 -5.27123 10.4848 
1 -10.6073 -5.51796 8.93144 
2 -10.4584 -7.26461 6.88016 
1 -8.76217 -7.21404 9.01661 
1 -8.78274 -5.44466 7.06568 
1 -7.17496 -7.12197 10.715 
1 -5.59261 -5.32222 10.8296 
1 -7.05574 -5.32959 8.87512 
1 -5.44685 -7.13713 8.79206 
1 -7.11464 -7.20182 7.14788 
1 -5.39133 -5.27431 7.10657 
2 -3.61043 -7.07891 10.7838 
1 -1.798 -5.32981 10.7563 
1 -1.77495 -7.12484 8.74171 
2 -3.6223 -5.48006 8.89695 
1 -3.63024 -7.07338 7.06179 
1 -1.79938 -5.3775 7.16465 
2 -0.143953 -5.32969 9.01167 
1 0.0484363 -7.11699 7.01387 
1 -0.159489 -7.12574 10.6644 
1 3.39497 -7.19756 10.7174 
1 1.80716 -5.3058 10.5828 
1 1.66947 -7.24992 9.00755 
1 3.58509 -5.39601 9.10386 
1 3.50095 -7.2274 7.19996 
2 1.85537 -5.37816 7.22261 
1 6.71606 -7.36558 10.6727 
1 5.30007 -5.40651 10.8034 
1 5.21606 -7.19044 9.00208 
1 7.06365 -5.48715 8.9742 
1 7.08741 -7.16933 7.23676 
2 5.29323 -5.31487 7.25373 
1 10.3468 -5.40507 9.30344 
1 8.46854 -5.47043 10.8285 
1 10.6263 -7.0017 7.43849 
1 8.80198 -7.26713 9.03007 
1 8.89047 -5.46352 7.29138 
1 -11.0275 -0.562098 9.28743 
2 -11.9307 -1.67823 7.26155 
1 -8.96718 -1.74263 10.4436 
1 -10.9058 -2.94254 9.63803 
2 -10.6644 -3.76202 7.20731 
1 -8.84403 -3.5764 8.84411 
2 -9.09145 -1.58819 7.20468 
1 -7.29876 -3.51127 10.748 
1 -5.32539 -1.64625 10.631 
1 -7.18621 -1.68891 8.87252 
2 -5.40517 -3.4604 8.93986 
1 -7.20996 -3.38919 7.13763 
1 -5.36612 -1.61145 7.30185 
1 -7.08586 0.201969 7.22982 
1 -5.3568 0.159882 12.4423 
1 -3.64598 -3.48141 10.7207 
1 -1.85432 -1.71076 10.7558 
1 -3.51807 -1.66743 8.93769 
2 -1.8722 -3.51158 9.01606 
1 -3.6149 -3.48034 7.24268 
1 -1.71128 -1.69289 7.18227 
1 -0.039865 -3.47975 10.7224 
1 0.0248401 -1.80116 8.90844 
1 3.44087 -5.51071 12.4739 
2 1.59963 -7.03277 12.2996 
1 -3.82068 -5.09764 12.5872 
2 0.144836 -3.48631 7.05321 
1 0.0165482 -5.26995 12.3534 
1 1.88596 -1.77747 7.12408 
1 3.57163 -3.60896 10.654 
1 1.74338 -1.80978 10.7284 
1 1.78743 -3.34743 8.95437 
1 3.61917 -1.76482 8.91084 
2 3.54219 -3.45952 7.05437 
1 -1.802 -6.85494 12.467 
2 11.9425 -0.141357 9.21345 
1 7.15533 -0.0190526 10.7356 
1 5.38577 -1.83915 7.21226 
1 7.08464 -3.58496 7.28629 
1 5.24281 -3.61893 9.01275 
1 7.21017 -1.75023 8.97453 
1 5.37498 -1.83687 10.7732 
1 7.01814 -3.6471 10.747 
2 9.08039 0.0164888 9.06916 
2 12.4294 -1.76647 7.25786 
1 10.6676 -2.13226 9.31024 
1 8.93471 -1.94125 7.20702 
1 8.71865 -3.66009 8.99599 
1 10.8438 -3.79619 7.41383 
1 8.9255 -1.9375 10.8345 
2 1.68033 0.103575 -12.5281 
1 -5.41092 -0.182906 -8.87979 
2 -8.82064 -0.10916 -5.65566 
1 -10.5598 -0.181621 -3.597 
1 -3.60859 0.0188382 -3.67472 
1 -0.158798 -0.0270652 -3.52692 
2 12.4849 0.0438259 -5.41933 
1 -12.2639 -0.141871 -1.61638 
1 -5.33705 -0.0745817 -1.90818 
1 -0.145325 -0.175573 -0.0333943 
1 -1.79477 -0.0360804 1.80789 
1 -3.44516 0.0686212 0.0586936 
2 3.59482 -0.196199 0.0250685 
1 12.3767 -0.103269 1.66527 
2 12.3767 -0.105919 -1.68977 
1 14.35 -0.0972421 -0.0557728 
1 -8.84662 0.159434 5.33005 
1 -7.12101 0.138314 3.66237 
1 -5.44286 0.0507033 5.50777 
1 -1.67923 -0.00830199 5.42141 
1 -3.64987 0.112289 3.53368 
1 12.8424 -0.106834 5.47557 
2 14.2361 -0.223614 3.39402 
1 -5.49834 0.136484 8.96351 
2 -3.55563 0.112164 7.32363 
1 -7.4687 1.48684 -12.2745 
1 -5.22733 3.36263 -12.6905 
2 -3.18851 3.64722 -14.1109 
2 -1.85974 1.45315 -14.4604 
2 -3.52047 1.67254 -12.5456 
1 -1.84485 3.62282 -12.2068 
1 -0.474218 3.70719 -14.2359 
2 -0.0629161 1.91682 -12.5184 
1 3.53185 3.10322 -14.4154 
1 1.34851 1.96818 -14.5827 
1 3.33275 1.9847 -12.5233 
2 1.69125 3.82754 -12.63 
2 3.48462 0.346335 -14.3154 
1 0.18513 5.33792 12.2828 
1 6.93127 2.04596 -12.4344 
1 5.01791 3.6121 -12.6606 
2 5.24656 0.243537 -12.5227 
1 -1.93903 7.21849 -12.5129 
1 -3.55485 5.46003 -12.4164 
1 -0.208822 5.48488 -12.4949 
1 1.60383 7.33123 -12.1801 
1 3.58441 5.55423 -12.3475 
1 -12.0661 1.93149 -7.48581 
1 -10.9225 2.9459 -9.38232 
1 -9.233 1.49601 -10.3658 
2 -8.72096 3.75564 -8.91324 
2 -9.1956 1.99229 -7.34418 
1 -11.1963 0.507793 -9.25952 
1 -10.7222 3.88534 -7.15173 
1 -7.17334 3.42764 -10.905 
2 -5.47328 1.73812 -10.7467 
2 -7.16684 1.73115 -8.91549 
1 -5.3054 3.4642 -8.90689 
1 -7.16686 3.64838 -7.00718 
2 -5.32802 1.78505 -7.14536 
1 3.48005 5.3728 12.6252 
1 -3.70838 3.59887 -10.7535 
1 -1.75609 1.75069 -10.6425 
1 -3.53732 1.72757 -8.94023 
2 -1.72083 3.64699 -9.02227 
2 -3.50456 3.43905 -7.04772 
1 -1.82636 1.64617 -7.03669 
1 -0.167539 3.53721 -6.9416 
1 -3.48369 0.0727707 -10.7232 
1 -0.155627 1.80214 -8.90689 
1 3.52135 3.67455 -10.661 
1 0.144621 3.81563 -10.6768 
1 1.80439 1.96351 -10.7247 
1 3.54041 1.86558 -8.86354 
2 1.79448 3.64481 -8.84384 
1 3.48525 3.62125 -7.04815 
2 1.68899 1.74762 -7.0713 
2 6.88755 3.85675 -10.8007 
1 5.21693 1.92775 -10.7478 
1 7.1017 1.91752 -9.11065 
1 5.22911 3.66362 -9.00208 
1 7.1521 3.62473 -7.20353 
1 5.19469 1.82513 -7.08589 
2 6.99075 0.0642717 -7.08165 
1 8.80259 2.28024 -10.9244 
2 10.332 1.81159 -9.06826 
1 10.556 3.58632 -7.13304 
1 8.75863 3.7463 -8.92419 
1 8.65719 1.83308 -7.15555 
2 12.2299 1.78847 -7.26869 
1 -10.6085 5.39358 -8.90892 
1 -10.766 7.08042 -6.99759 
1 -8.86527 7.08496 -8.82084 
1 -8.82125 5.42375 -7.12389 
1 -8.48323 5.5316 -10.6536 
1 -6.86423 7.32755 -10.6571 
2 -5.53306 5.36006 -10.8592 
1 -6.83425 5.43061 -8.67435 
1 -5.36806 7.31703 -8.73681 
2 -7.15417 7.20148 -6.98449 
1 -5.27212 5.31267 -7.00114 
2 -3.836 7.2527 -10.7478 
1 -1.89457 5.42338 -10.62 
1 -1.81264 7.14137 -8.75475 
2 -3.68625 5.41837 -8.80553 
1 -3.63192 7.12107 -7.03006 
1 -1.84585 5.43298 -7.05629 
1 -0.0611538 7.27976 -6.98903 
1 -0.147425 7.34706 -10.5682 
2 0.0207192 5.39049 -8.84181 
1 3.5116 7.33418 -10.6656 
1 1.87745 5.56216 -10.6201 
2 1.86341 7.27776 -8.79629 
1 3.52615 5.51327 -8.82663 
1 3.49631 7.10037 -6.88896 
1 1.6756 5.38792 -7.00586 
1 6.89177 7.21207 -10.511 
1 5.28198 5.62533 -10.6775 
1 7.01491 5.45389 -8.83188 
1 5.22176 7.21957 -8.67952 
1 7.08004 7.14354 -7.09245 
1 5.32092 5.19586 -7.04718 
1 8.79167 5.572 -10.4572 
1 10.6123 5.31763 -8.87364 
2 10.5871 7.0042 -6.87716 
1 8.67056 7.43855 -8.88518 
1 8.88376 5.47516 -7.07652 
1 -9.016 9.00352 -7.11329 
1 -5.27936 9.09908 -10.3286 
1 -5.01022 10.7107 -8.53315 
1 -7.10899 10.667 -6.97013 
1 -7.19606 9.0347 -8.86524 
1 -5.41625 9.01116 -6.98413 
2 -1.96166 9.05941 -10.4934 
2 -1.98854 10.7341 -8.57409 
1 -3.47703 10.9586 -6.69862 
1 -3.5813 8.83833 -8.64009 
1 -1.81574 9.02392 -6.96179 
1 -0.205195 10.7605 -10.3437 
1 0.0662994 10.6231 -6.95749 
1 -0.0613262 9.05678 -8.75923 
1 -1.57842 12.4583 -6.95076 
1 1.77453 9.11205 -10.5027 
1 1.71445 10.8156 -8.79037 
1 3.47882 10.8154 -7.02034 
1 3.48421 9.04636 -8.68352 
1 1.81337 8.96229 -7.023 
2 1.61254 12.6275 -6.96221 
1 5.07543 9.04789 -10.2388 
1 5.27533 10.8234 -8.50076 
1 7.11077 10.8394 -6.96567 
1 6.9992 9.13042 -8.62849 
1 5.15578 8.90847 -6.90991 
1 8.99621 8.88976 -7.0032 
2 -14.1729 2.9798 -3.61041 
2 -12.5396 3.38761 -5.44805 
1 -14.2799 0.0656798 -3.61568 
1 -12.6129 0.094289 -5.47885 
1 -12.324 1.48044 -3.53993 
2 -10.6945 1.60954 -5.30012 
1 -10.8352 3.48702 -3.60429 
1 -9.01379 3.62582 -5.36516 
2 -8.89318 1.87113 -3.59244 
1 1.76605 7.32717 12.4793 
1 -3.63126 5.37951 12.5365 
1 -7.06584 1.78423 -5.51996 
2 -7.09641 3.53371 -3.62274 
1 -5.20235 3.55749 -5.28322 
1 -5.32001 1.65606 -3.5062 
2 -7.08775 0.0419733 -3.71888 
1 -3.60651 1.61277 -5.27358 
1 -1.89512 3.51237 -5.18379 
1 -3.64498 3.52636 -3.45895 
1 -1.77448 1.68626 -3.54962 
1 0.00467055 3.66667 -3.48801 
1 -0.14326 1.70876 -5.28688 
1 -1.92585 7.05856 12.4187 
1 3.5615 1.79581 -5.29653 
2 1.73948 3.53304 -5.14182 
1 3.61709 3.48347 -3.40334 
2 1.77516 1.60081 -3.46671 
1 5.23526 3.55192 12.4502 
1 6.98753 1.77331 -5.29597 
1 7.04029 3.4363 -3.53584 
1 5.30099 3.4682 -5.25065 
1 5.27171 1.66036 -3.45605 
1 10.5506 1.65117 -5.33162 
1 10.6037 3.42728 -3.61433 
2 8.91093 3.56016 -5.33666 
1 8.78417 1.80278 -3.56027 
1 12.457 1.73007 -3.60471 
1 8.82048 0.111048 -5.35837 
1 12.2841 3.42689 -5.42759 
1 14.14 3.32181 -3.48972 
1 7.07506 1.70356 12.5495 
1 -12.6183 5.27572 -3.55504 
1 -10.795 6.98021 -3.6168 
1 -10.8411 5.34806 -5.34881 
2 -8.96759 7.15896 -5.19933 
1 -8.99891 5.17815 -3.60638 
1 -7.16701 7.04246 -3.45785 
1 -7.12139 5.34708 -5.258 
1 -5.38671 7.1067 -5.22098 
1 -5.31345 5.36786 -3.52721 
1 -1.80563 7.07871 -5.22815 
1 -3.53632 7.11806 -3.5109 
1 -3.55562 5.42497 -5.27806 
1 -1.89063 5.23777 -3.48446 
1 -0.0585072 5.31405 -5.39343 
2 0.00431943 7.04748 -3.55443 
1 1.74637 7.10241 -5.26792 
2 3.47878 7.08388 -3.49456 
1 3.49666 5.26694 -5.19336 
1 1.80762 5.29749 -3.52542 
1 7.18763 7.15431 -3.45626 
1 7.08758 5.26918 -5.3114 
2 5.45902 6.99642 -5.32097 
1 5.37947 5.2399 -3.42416 
1 10.587 7.01235 -3.57036 
1 10.6334 5.22943 -5.1415 
1 8.75892 7.10721 -5.34583 
1 8.66293 5.32512 -3.5168 
2 12.3634 5.23582 -3.51592 
1 -8.81158 10.6705 -5.18297 
1 -10.6354 8.92326 -5.07564 
1 -8.89232 8.94534 -3.40499 
1 -10.461 10.8513 -3.47502 
1 -7.22965 10.7012 -3.40152 
1 -5.33219 10.9114 -5.39069 
1 -7.11779 8.95936 -5.18255 
1 -5.44752 8.82823 -3.51891 
1 -1.72038 10.7525 -5.13678 
1 -3.56738 10.6945 -3.50696 
2 -3.668 8.86629 -5.34096 
1 -1.82693 8.94314 -3.57051 
1 -0.0701935 8.99213 -5.24278 
1 0.0326719 10.729 -3.445 
1 -1.72977 12.5162 -3.24748 
1 -3.41441 12.7461 -5.01921 
2 1.81668 10.8667 -5.14486 
1 3.51972 10.7516 -3.40154 
1 3.45803 8.93943 -5.31271 
1 1.75383 8.97932 -3.59155 
1 3.5772 12.7192 -5.41697 
1 1.88864 12.5249 -3.29497 
1 -0.0511195 12.652 -5.05034 
1 7.31481 11.0122 -3.64466 
2 5.27979 10.8689 -5.30577 
1 7.15559 8.97033 -5.32046 
2 5.35255 9.02528 -3.53217 
1 10.6682 8.85763 -5.22188 
1 8.89544 10.8704 -5.3287 
1 8.85182 9.03857 -3.55822 
1 -5.3349 12.4829 -3.43367 
2 -3.55991 14.1706 -3.02521 
1 0.264406 14.1922 -3.45177 
2 3.25427 14.3086 -3.63848 
1 5.40493 12.7174 -3.42981 
1 -14.1941 3.51797 -0.0539557 
1 -14.2468 1.60894 -1.79145 
1 -14.2494 1.67912 1.59267 
2 -12.3558 3.34741 1.71946 
1 -12.3827 1.69458 -0.10126 
1 -12.4946 3.27933 -1.86463 
2 -10.6909 3.3862 -0.0460548 
1 -10.6651 1.57809 -1.92941 
1 -10.5456 1.64537 1.79311 
1 -8.98675 3.52776 -1.82508 
1 -8.97189 3.50114 1.75879 
1 -8.8375 1.81454 -0.10489 
2 -12.2731 -0.134717 1.65493 
1 1.86687 3.5313 12.4233 
1 -8.88437 0.00846407 -1.8183 
2 -8.67549 0.0313543 1.66074 
1 -7.18593 3.48029 -0.122377 
1 -7.10928 1.81902 -1.8108 
1 -7.08072 2.00118 1.80697 
1 -5.30847 3.63675 -1.74335 
1 -5.30933 3.62832 1.77065 
1 -5.35796 1.86968 -0.078763 
1 3.55507 1.73826 12.3996 
2 -5.43452 0.129058 1.77028 
1 -7.04682 0.0292764 -0.170893 
2 -3.55096 3.58617 0.0517209 
1 -3.57731 1.67135 -1.76255 
2 -1.83651 3.58603 -1.78556 
1 -3.50214 1.86404 1.72553 
1 -1.85072 3.54508 1.81661 
1 -1.66157 1.76792 -0.00773583 
1 -0.0289644 1.7869 1.80531 
1 -0.0593793 3.6428 0.0765741 
1 1.99114 1.8301 14.0494 
1 3.61102 3.52962 14.1142 
2 0.0876149 3.31719 14.0711 
1 -0.134818 1.66369 -1.80378 
2 3.58034 3.45502 0.184324 
1 3.54182 1.72452 -1.59845 
2 1.75376 3.51279 -1.76978 
1 3.55559 1.8062 1.8439 
1 1.54776 3.70648 1.95948 
2 1.74909 1.7225 0.0493521 
2 -3.52752 1.87373 12.3757 
1 7.05393 3.58361 0.0893454 
1 7.11033 1.79241 -1.75237 
1 7.19066 1.83717 1.84633 
1 5.41978 3.50743 -1.73112 
1 5.51668 3.55343 1.93817 
2 5.36107 1.67854 0.118487 
1 10.5867 0.0175381 0.106794 
1 -1.65624 1.67035 14.3032 
1 10.6566 3.64237 0.00219338 
1 10.7191 1.7442 1.77694 
2 10.5342 1.86114 -1.76188 
1 8.80307 3.651 -1.74596 
1 8.88412 3.60087 1.7642 
1 8.83189 1.80824 -0.0259916 
1 12.3052 3.52433 1.67576 
1 12.4591 3.51847 -1.78113 
1 -3.42628 3.54574 14.0613 
2 8.9011 -0.0129199 1.84641 
2 -1.663 3.57803 12.292 
1 12.4375 1.81637 0.0414135 
1 14.2551 3.56746 0.240628 
1 14.2997 1.60793 1.74436 
2 14.2194 1.6646 -1.71295 
1 -12.4238 6.95772 -1.87334 
1 -12.52 5.25918 -0.104538 
1 -12.4927 6.92567 1.64947 
1 -10.76 6.86702 -0.0419424 
1 -10.7561 5.27702 -1.9419 
1 -10.7149 5.2039 1.77373 
1 -8.98114 6.99961 -1.78633 
2 -8.98511 6.96775 1.78981 
1 -8.90557 5.26572 -0.0640829 
1 -7.08924 7.03948 0.0505848 
1 -7.15438 5.3213 -1.7686 
2 -5.40533 7.01223 -1.74738 
1 -7.1488 5.16523 1.66143 
1 -5.39501 7.05378 1.72761 
1 -5.43853 5.3035 -0.00984162 
1 -3.45883 7.16055 0.0880599 
1 -1.79281 7.12699 -1.76036 
1 -1.72695 7.18143 1.93078 
1 -3.60143 5.46942 -1.70015 
1 -3.66382 5.42459 1.83597 
2 -1.75628 5.4741 0.089149 
1 0.0574891 5.42692 -1.64848 
1 0.0370466 7.23743 0.156491 
1 -0.0386259 5.35258 1.88268 
1 3.5361 7.08601 -0.020074 
1 1.84007 7.07348 -1.68115 
2 1.75548 7.15826 1.79574 
1 3.62508 5.20295 -1.63855 
2 3.60024 5.31013 1.9088 
1 1.76397 5.32292 0.0321066 
1 7.17303 6.984 0.227633 
1 7.1391 5.36053 -1.66595 
2 5.47002 7.09501 -1.6877 
1 7.19331 5.28731 1.95491 
1 5.3719 7.06622 1.81121 
1 5.33864 5.35445 0.112308 
2 12.0456 7.17991 1.78709 
1 12.3711 7.16016 -1.70975 
1 12.4515 5.25221 -0.0195783 
1 10.6189 6.93631 -0.131002 
1 10.6423 5.27836 1.86521 
1 10.5866 5.24789 -1.83312 
1 8.85292 7.06181 -1.73964 
2 9.24336 7.1826 1.81216 
1 8.82613 5.30573 0.109238 
2 -8.83648 10.6837 -1.69144 
1 -8.97978 10.5368 1.35966 
2 -10.6668 8.7403 -1.79147 
1 -10.844 8.80863 1.60354 
1 -8.96719 8.65476 -0.0548145 
1 -7.12191 10.5869 -0.061334 
1 -5.3574 10.7302 1.63366 
1 -5.40197 10.5653 -1.8471 
1 -7.21395 8.76142 -1.75383 
1 -7.07506 8.90009 1.56772 
1 -5.39296 8.84696 -0.0433853 
1 -7.23849 12.6251 -1.81927 
1 -7.30384 12.4725 1.45392 
2 -5.50006 12.4993 -0.245315 
1 -3.56755 12.2822 -1.6546 
1 -3.54967 10.6139 -0.136746 
2 -1.73374 10.6564 1.76644 
1 -1.88818 10.5192 -1.76693 
1 -3.62447 8.88796 -1.73938 
2 -3.58693 8.95834 1.85017 
1 -1.78998 8.92092 -0.0528327 
2 0.0241892 8.90126 -1.75861 
1 -1.6968 12.5642 -0.0615237 
2 -3.62587 12.4511 1.53543 
1 -0.0568272 10.5714 0.00705573 
1 0.050053 8.92902 1.82525 
1 3.64368 10.7002 0.0296692 
1 1.80074 10.6233 1.77724 
1 1.85609 10.7937 -1.70556 
1 3.55428 8.90146 -1.73364 
1 3.59506 8.8915 1.73151 
1 1.84498 8.92227 -0.00415354 
1 -0.0124105 12.4065 -1.65951 
1 -0.00696869 12.4688 1.83578 
1 3.68738 12.346 1.79715 
2 1.86516 12.4121 0.0796856 
1 7.28453 10.6686 0.134366 
1 5.41394 10.575 1.78717 
2 5.51068 10.7977 -1.67588 