ITEM: TIMESTEP
1750000
ITEM: NUMBER OF ATOMS
1289
ITEM: BOX BOUNDS pp pp pp
-100 100
-100 100
-100 100
ITEM: ATOMS type x y z 
1 -1.72353 -7.10843 -12.3491 
1 -3.69715 -5.33971 -12.4266 
1 -0.147254 -5.32424 -12.382 
1 1.36218 -7.07445 -12.4736 
1 3.39246 -5.42191 -12.5113 
1 -7.03695 -1.74407 -12.4445 
2 -5.45092 -3.62216 -12.2663 
2 -1.98084 -2.10685 -14.2893 
2 -3.72268 -1.78871 -12.4895 
1 -1.83888 -3.64838 -12.4305 
1 -0.073785 -1.82076 -12.5003 
1 0.0661737 -3.60814 -14.2484 
1 -7.31577 0.086186 10.7833 
2 3.40443 -3.65604 -14.1942 
1 1.6372 -3.6295 -12.4618 
1 3.33184 -1.83326 -12.4117 
1 1.66706 -1.69462 -14.3505 
2 5.2031 -3.42665 12.4535 
1 -5.40703 -0.0892142 12.4801 
1 5.10286 -1.82376 -14.2308 
2 7.1595 -1.91331 -12.5008 
2 5.2659 -3.6744 -12.5186 
2 12.3738 0.0679932 -2.05784 
1 -1.9168 -12.6304 -7.01488 
1 1.6021 -12.6295 -7.0679 
1 -8.85476 -8.97842 -6.90956 
2 -5.36081 -10.6836 -8.55307 
1 -5.38492 -8.98713 -10.6049 
1 -7.28306 -8.94452 -8.78329 
1 -5.45336 -8.88757 -6.945 
1 -7.3065 -10.7208 -7.01368 
1 -1.92756 -10.754 -8.67862 
1 -1.86368 -9.00312 -10.6347 
1 -3.77941 -10.8011 -6.8561 
2 -3.70289 -8.92251 -8.8139 
1 -1.9533 -8.93124 -7.04448 
1 0.0130577 -8.81524 -8.91069 
2 0.00639727 -10.6862 -7.11761 
1 -0.161325 -10.5717 -10.4687 
1 1.71969 -8.9848 -10.7779 
2 1.79882 -10.7015 -8.92281 
1 3.31059 -10.726 -7.02415 
2 3.57106 -8.76286 -8.87983 
1 1.74165 -8.83417 -7.17833 
1 5.16399 -10.8952 -8.75198 
1 6.95654 -8.99586 -8.7004 
1 5.33245 -8.92154 -7.01048 
1 7.06312 -10.8244 -7.0611 
1 5.37607 -8.98975 -10.5208 
1 8.77242 -8.94433 -7.25263 
1 -10.741 -5.33864 -8.90063 
1 -8.77754 -5.34172 -10.4703 
1 -8.95327 -7.07437 -8.85679 
2 -8.75233 -5.16521 -7.11444 
2 -10.5587 -7.06438 -6.92317 
1 -7.23404 -7.17019 -10.7802 
1 -5.44591 -5.37249 -10.5604 
1 -6.95713 -5.31029 -8.84717 
1 -5.50367 -7.24085 -8.8614 
2 -7.08734 -7.14803 -7.06428 
1 -5.31851 -5.21647 -7.01885 
2 -3.64353 -7.05988 -10.7514 
1 -2.00924 -5.26197 -10.6595 
1 -1.95715 -7.10764 -8.95221 
1 -3.74189 -5.41215 -8.78351 
1 -3.80871 -7.16412 -7.02795 
2 -1.98977 -5.35574 -6.99157 
2 -0.189349 -7.17462 -7.09108 
1 -0.190304 -7.20764 -10.6716 
2 -0.120847 -5.43379 -8.93408 
2 3.38011 -7.15964 -10.7571 
1 1.65341 -5.22978 -10.6762 
1 1.75081 -7.22915 -8.98643 
1 3.54178 -5.34116 -8.99596 
1 3.62364 -7.1337 -7.09796 
2 1.84862 -5.44222 -7.3115 
1 7.05362 -7.12389 -10.7287 
1 5.22284 -5.53198 -10.7728 
1 5.30124 -7.16797 -8.83509 
1 6.97471 -5.41289 -8.9231 
1 7.01424 -7.13787 -7.19737 
1 5.2995 -5.37479 -7.08524 
1 8.99287 -5.3368 -10.7633 
1 10.5803 -5.39523 -9.02036 
1 10.4977 -7.25555 -7.10042 
2 8.75484 -7.00068 -8.86505 
1 8.93818 -5.17988 -7.0162 
1 -12.4595 -1.99461 -6.97576 
1 -10.658 -1.88604 -8.99229 
1 -8.86328 -1.69887 -10.7286 
1 -10.6083 -3.57133 -7.07295 
1 -8.92848 -3.43912 -9.02779 
1 -9.03344 -1.76349 -7.21171 
1 6.97916 -1.7387 12.448 
1 -10.843 -0.158022 -7.16179 
1 -7.25775 -3.55168 -10.7287 
1 -5.35247 -1.73 -10.6452 
1 -7.13099 -1.81548 -8.95336 
1 -5.33289 -3.45194 -8.92521 
1 -6.90289 -3.50457 -7.14836 
1 -5.24991 -1.77062 -7.12146 
1 1.58332 0.0476808 12.5415 
1 3.4828 -1.81404 12.533 
1 -3.70724 -3.49875 -10.6947 
1 -1.96544 -1.84302 -10.8567 
1 -3.56391 -1.64852 -8.86939 
2 -2.04004 -3.56027 -9.02656 
1 -3.51373 -3.5312 -6.95734 
1 -1.78329 -1.80988 -7.10476 
1 -0.115409 -3.61747 -10.6138 
1 -0.123906 -1.79691 -8.93102 
1 -0.091844 -3.48944 -7.12438 
1 1.55718 -3.5113 12.2855 
1 1.50534 -1.94129 14.1236 
2 12.5011 -0.00347864 -5.34347 
1 3.51734 -3.6229 -10.7343 
1 1.6335 -2.02495 -10.7059 
1 1.7864 -3.58571 -8.73052 
2 3.54595 -1.85529 -8.96931 
1 3.58656 -3.53804 -7.1384 
1 1.73436 -1.77565 -7.12362 
1 -0.105612 -1.64778 12.3789 
1 7.04958 -3.82011 -10.8119 
1 5.38152 -1.88648 -10.8148 
1 6.97657 -1.91551 -9.07692 
1 5.34983 -3.69158 -8.93536 
1 7.10641 -3.69792 -7.10821 
1 5.45733 -1.79747 -7.11797 
2 7.13944 0.0189941 -7.26178 
1 8.88267 -1.93184 -10.7492 
1 10.7743 -3.58884 -7.17057 
1 8.82608 -3.83197 -8.96598 
2 8.74872 -1.98389 -7.31501 
2 10.5942 -1.87041 -9.03673 
1 12.5123 -1.47966 -7.36996 
1 -1.71657 -14.246 -5.00037 
1 -3.57284 -12.5732 -5.04877 
2 0.0723354 -14.1973 -3.34463 
1 -1.67444 -12.468 -3.33867 
1 3.48208 -12.5781 -5.51704 
2 1.93212 -12.5434 -3.60458 
1 -10.6968 -9.03703 -5.0644 
1 -8.74174 -10.7494 -5.04283 
2 -8.86873 -9.09678 -3.36724 
1 -5.3705 -12.5237 -3.32664 
1 -7.06628 -10.8351 -3.36999 
1 -5.42864 -10.8208 -5.12789 
1 -7.01128 -9.01414 -5.13782 
1 -5.3711 -8.90704 -3.39491 
2 -1.79885 -10.7198 -5.25437 
1 -3.58135 -10.8024 -3.40776 
1 -3.6132 -9.01707 -5.21257 
2 -1.87299 -8.76699 -3.47724 
1 0.0252014 -8.91275 -5.33278 
2 0.139657 -10.7317 -3.53833 
1 0.0325578 -12.5897 -5.33018 
1 1.74562 -10.6927 -5.32898 
1 3.53305 -10.707 -3.55402 
1 3.49903 -8.9118 -5.35884 
1 1.80717 -8.88327 -3.52281 
1 5.13473 -12.6141 -3.52587 
2 7.00254 -10.9243 -3.6882 
1 5.15314 -10.9064 -5.42129 
1 7.10881 -8.95707 -5.41997 
2 5.3109 -8.90204 -3.61944 
1 8.82362 -10.7675 -5.46367 
2 8.74162 -9.06997 -3.56426 
1 10.7185 -9.00932 -5.28616 
1 -12.4891 -5.3421 -3.57598 
1 -10.7886 -7.11118 -3.53204 
1 -10.6019 -5.36736 -5.22392 
2 -8.76972 -7.16064 -5.21295 
1 -8.82889 -5.31522 -3.47838 
1 -7.06851 -7.23102 -3.47664 
1 -6.92396 -5.2967 -5.1648 
1 -5.34326 -7.24651 -5.17883 
1 -5.35509 -5.20371 -3.40242 
1 -1.98829 -7.22782 -5.24111 
1 -3.68025 -7.05813 -3.44421 
1 -3.68384 -5.42109 -5.23326 
1 -1.83651 -5.48045 -3.53203 
2 -0.180198 -5.20272 -5.26048 
1 -0.0433676 -7.19771 -3.65035 
2 1.89703 -7.19771 -5.26022 
1 3.60187 -7.09939 -3.54409 
1 3.61867 -5.29597 -5.29146 
1 1.70479 -5.28027 -3.68614 
1 7.02949 -7.11534 -3.53739 
1 5.38898 -6.99566 -5.34655 
1 7.13825 -5.37875 -5.41087 
1 5.39836 -5.35242 -3.61074 
1 10.7462 -7.1743 -3.77925 
1 10.7809 -5.36528 -5.41305 
2 8.86944 -7.20086 -5.46173 
2 8.85959 -5.35684 -3.66492 
1 12.5792 -5.27965 -3.63896 
1 -14.117 -3.55763 -3.563 
1 -12.4431 -3.72712 -5.43939 
2 -12.5034 -1.75381 -3.6903 
1 -10.6545 -1.79862 -5.30907 
2 -10.8165 -3.59639 -3.53401 
1 -8.94387 -3.61758 -5.29923 
2 -8.87742 -1.81792 -3.4938 
2 -7.10698 -1.83185 -5.3832 
1 -7.07472 -3.65511 -3.44287 
1 -5.2128 -3.51749 -5.27191 
1 -5.39341 -1.74869 -3.52888 
1 -3.59201 -1.72569 -5.34311 
1 -1.82541 -3.48397 -5.27286 
1 -3.53673 -3.49061 -3.60722 
1 -1.83104 -1.63793 -3.66131 
1 -0.146862 -3.49675 -3.58172 
1 -0.0199892 -1.75201 -5.36736 
2 -0.370044 -3.71654 14.0378 
1 1.78312 -3.56806 -5.44506 
1 3.66878 -1.7781 -5.3789 
1 3.48871 -3.68856 -3.67017 
2 1.74463 -1.77211 -3.714 
1 -3.65866 -1.75074 12.49 
1 6.99128 -1.7662 -5.32626 
1 7.06521 -3.48414 -3.67982 
1 5.35383 -3.45976 -5.35536 
1 5.37172 -1.79395 -3.6074 
1 5.27838 -0.0678268 -5.41669 
1 -1.87377 -1.68071 14.2102 
1 10.6559 -1.71951 -5.4387 
1 10.6192 -3.51126 -3.68282 
1 8.91291 -3.56202 -5.40978 
1 8.89669 -1.67797 -3.74058 
1 12.1929 -1.76017 -3.63718 
2 12.4917 -3.33809 -5.43972 
2 14.1241 -3.0813 -3.52825 
2 14.2958 -0.241873 -3.76841 
1 -1.66483 -14.2206 -1.62731 
1 -3.2778 -14.2187 0.420939 
1 -0.965705 -14.5043 1.06802 
1 -3.38902 -12.5028 -1.64708 
1 0.681165 -14.5919 -0.822963 
1 2.5084 -14.6013 -2.3516 
1 3.33644 -14.3012 0.0427082 
2 1.40508 -14.1284 1.69087 
1 5.10119 -14.3913 -1.81511 
1 -10.6237 -10.6515 0.138786 
1 -10.7568 -8.89975 -1.82361 
1 -8.91225 -10.7393 -1.45489 
1 -8.9204 -8.90731 0.0181944 
2 -10.9355 -8.79471 1.812 
2 -8.86681 -10.6823 1.93051 
2 -6.97194 -12.5507 1.66267 
1 -5.02287 -12.6667 0.165706 
2 -7.25953 -12.2851 -1.1983 
1 -7.12615 -10.3853 0.17212 
2 -5.2156 -10.6519 -1.56383 
2 -5.22017 -10.5489 1.7564 
1 -7.0982 -8.90369 -1.68327 
1 -7.10241 -8.73892 1.90627 
1 -5.30939 -8.78496 0.0619652 
1 -3.35736 -12.2855 1.6476 
1 -1.52562 -12.3497 0.109557 
1 -3.41251 -10.5928 0.0104025 
1 -1.76729 -10.5224 -1.64208 
1 -1.62616 -10.4409 1.71293 
1 -3.56281 -8.75188 -1.70642 
1 -3.41293 -8.92983 1.82529 
1 -1.79926 -8.7604 0.0212453 
1 0.0628078 -8.92066 -1.65591 
1 0.102199 -10.4226 0.129051 
1 0.0648388 -8.66567 1.80146 
2 1.84173 -12.3017 0.161252 
2 0.0430295 -12.3761 -1.52222 
1 3.59159 -12.5476 1.8426 
1 0.0379814 -12.4138 1.88695 
1 3.5225 -12.4905 -1.70962 
1 3.69019 -10.5931 0.126479 
1 1.99986 -10.6111 -1.82356 
1 1.92065 -10.5396 1.78208 
1 3.65752 -8.83191 -1.67421 
1 3.60622 -8.78616 1.73624 
1 1.9251 -8.85412 -0.0566016 
1 5.32621 -12.5577 0.0675472 
2 6.91554 -12.5937 -1.7875 
1 7.0641 -12.4814 1.62105 
1 7.12039 -10.7983 -0.0115769 
1 5.37593 -10.7256 -1.80723 
1 5.38708 -10.6914 1.73738 
1 6.98688 -9.07837 -1.75593 
2 7.13341 -8.90574 1.71712 
1 5.34043 -8.92539 -0.0287225 
1 8.74826 -12.4236 -0.106203 
1 8.88016 -10.8694 -1.97781 
1 10.7501 -8.85717 -1.88683 
1 10.8124 -8.94198 1.55115 
2 8.85169 -8.9786 -0.131177 
1 -12.4326 -5.32728 -0.0293905 
1 -12.4764 -7.14363 -1.74473 
2 -10.6831 -7.08854 0.036317 
1 -10.6457 -5.35896 -1.83184 
1 -10.6765 -5.44076 1.82819 
1 -8.92869 -7.14167 -1.80929 
1 -8.98809 -7.19512 1.89934 
1 -8.90383 -5.25793 -0.0139781 
1 -7.10134 -7.18507 0.0194862 
1 -7.09662 -5.38488 -1.70325 
1 -5.31387 -7.01186 -1.68879 
2 -7.25553 -5.40155 1.83458 
1 -5.23176 -7.09402 1.76644 
1 -5.37003 -5.35423 0.0339873 
1 -3.63125 -7.06342 -0.0473686 
1 -1.69788 -7.11919 -1.69397 
1 -1.74643 -7.08469 1.77717 
1 -3.60036 -5.24228 -1.7995 
1 -3.56725 -5.29049 1.86916 
2 -1.76576 -5.25585 0.0267223 
1 -0.0261375 -5.33545 -1.87066 
1 0.0581568 -6.98769 0.101769 
1 0.045075 -5.28744 1.80085 
1 3.67019 -7.04121 -0.0243878 
2 1.69762 -7.07221 -1.77498 
1 1.98378 -7.02839 1.77377 
2 3.54216 -5.31901 -1.79344 
1 3.59751 -5.23154 1.86158 
1 1.77845 -5.23711 0.0871641 
1 7.09183 -7.13282 -0.195261 
1 5.31038 -7.09981 -1.83898 
1 7.13285 -5.35008 -1.86317 
1 5.41671 -7.13285 1.66049 
2 7.15504 -5.31493 1.71963 
1 5.46076 -5.28497 -0.105174 
1 10.5841 -7.1893 -0.179887 
1 10.6781 -5.50722 1.69819 
1 10.6681 -5.39952 -1.90913 
1 8.81234 -7.0227 -1.98253 
1 9.05474 -7.07179 1.66226 
1 9.00259 -5.25123 -0.12752 
2 12.3967 -5.42038 -0.153757 
1 12.6777 -7.04162 1.72122 
1 12.3714 -7.04571 -1.92448 
1 -14.3211 -3.49767 -0.0982118 
2 -14.2809 -1.79214 -1.88247 
1 -14.3729 -1.7427 1.58174 
1 -12.4679 -3.62017 -1.70034 
1 -12.4877 -1.77465 -0.108942 
1 -2.06128 -3.55329 12.4623 
1 -12.4714 -3.50309 1.65517 
1 -10.6452 -3.44231 -0.0995023 
1 -10.7628 -1.73967 -1.776 
1 -10.7165 -1.73828 1.68419 
1 -8.86891 -3.53914 -1.79857 
2 -9.04048 -3.53704 1.80925 
1 -8.89474 -1.84209 -0.0797008 
1 -0.00195558 0.129553 14.3985 
1 -7.10219 -3.47474 -0.0798618 
1 -7.16726 -1.72937 -1.77795 
1 -7.30647 -1.79307 1.83703 
1 -5.29062 -3.58211 -1.72491 
2 -5.46364 -3.48789 1.70961 
2 -5.31975 -1.6482 -0.0267612 
1 -3.59612 -3.51957 0.0881356 
1 -3.60125 -1.69243 -1.82802 
2 -1.92851 -3.52961 -1.8586 
2 -3.47809 -1.67393 1.88686 
1 -1.68807 -3.43442 1.89406 
1 -1.76666 -1.69062 -0.0525024 
1 -0.0243963 -3.42934 -0.0665155 
1 -0.0852106 -1.72785 -1.95572 
1 0.00353147 -1.71312 1.76044 
1 8.85326 0.182661 -5.45094 
2 3.65359 -3.48421 0.0495686 
2 1.68493 -3.53205 -1.88411 
1 3.57885 -1.74271 -2.00485 
1 1.85988 -3.46235 1.78917 
1 3.6114 -1.75675 1.87658 
1 1.75309 -1.77369 -0.05293 
2 1.77806 -0.0234084 1.89591 
1 -7.12416 -1.78672 12.2646 
1 -5.3355 -3.46596 12.5074 
1 7.24973 -3.64661 -0.188928 
1 7.13293 -1.73834 -1.89146 
1 7.22018 -1.82373 1.88154 
1 5.40955 -3.48376 -1.84826 
1 5.45596 -3.45281 1.80496 
2 5.59928 -1.6797 0.0185204 
1 -0.328855 -6.5661 14.1241 
2 1.59447 -6.93073 12.4601 
1 10.6062 -3.54048 -0.142551 
1 10.7146 -1.9036 1.67272 
1 10.5787 -1.67308 -1.89986 
1 8.87109 -3.53803 -1.94583 
1 9.02676 -3.58516 1.72378 
2 8.85624 -1.77396 -0.080955 
1 12.2873 -3.48908 -1.87596 
2 12.4747 -3.63407 1.56355 
1 12.4857 -1.70425 -0.11915 
2 14.2582 -3.5287 -0.26797 
1 14.4435 -1.53907 -1.76309 
1 14.2374 -1.73229 1.6745 
1 1.65541 -5.04256 14.1926 
2 -5.12309 -12.7486 3.43737 
2 -2.89224 -14.1178 3.11828 
1 -0.339985 -14.2325 3.54959 
1 3.48433 -14.0253 3.65832 
1 -10.9056 -10.7015 3.35353 
1 -10.9293 -9.06496 5.32971 
2 -8.99448 -8.89604 3.58421 
2 -8.79828 -10.7996 5.19142 
1 -7.0177 -10.8885 3.60484 
1 -5.3388 -10.9235 5.34445 
1 -7.14214 -9.07716 5.45508 
2 -5.43166 -8.9616 3.75383 
2 -3.2878 -12.528 5.28007 
1 -1.66673 -12.2047 3.47746 
1 -1.83803 -10.5856 5.4006 
1 -3.46709 -10.7479 3.5279 
2 -3.58374 -8.91842 5.42167 
1 -1.77231 -8.87299 3.66452 
2 0.0326479 -12.3041 5.14707 
1 3.48325 -12.3831 5.36338 
1 0.0437727 -8.77411 5.35054 
1 0.118777 -10.476 3.50682 
1 1.75958 -12.3584 3.57708 
1 1.85251 -10.5078 5.26625 
2 3.61828 -10.6561 3.50425 
1 3.6591 -8.89998 5.40295 
1 1.84383 -8.72068 3.51214 
1 5.40362 -12.5096 3.73428 
1 7.08814 -10.85 3.56168 
1 5.34476 -10.7059 5.5088 
2 7.05156 -8.92097 5.47643 
2 5.42538 -8.86755 3.53112 
1 8.89775 -10.727 1.743 
1 8.97565 -10.5757 5.20597 
2 9.04102 -8.88918 3.44989 
1 -12.5913 -5.27513 3.27928 
1 -10.901 -7.21974 3.70599 
1 -10.7693 -5.31882 5.14135 
1 -8.98078 -7.16604 5.37814 
1 -8.99304 -5.35352 3.63623 
1 -7.20217 -7.15102 3.64111 
1 -7.13738 -5.36452 5.29538 
1 -5.46302 -7.13659 5.46052 
2 -5.15188 -5.39936 3.69507 
1 -1.82086 -7.05443 5.22674 
1 -3.48127 -7.16885 3.46984 
1 -3.53139 -5.32092 5.44198 
2 -1.78226 -5.31109 3.48246 
1 0.0998253 -7.0663 3.54389 
2 0.0462556 -5.48088 5.47365 
1 1.79874 -7.14487 5.38127 
1 3.58926 -7.08886 3.59413 
1 3.62744 -5.26223 5.28924 
1 1.8919 -5.25809 3.51744 
1 7.36058 -7.14774 3.46071 
1 5.39836 -6.99734 5.31165 
2 7.25601 -5.47013 5.26902 
2 5.44629 -5.32666 3.56515 
2 10.8174 -8.67022 5.33033 
1 10.8518 -7.2128 3.34966 
1 10.7832 -5.44786 5.3716 
1 8.9893 -7.16317 5.35358 
1 9.1216 -5.38195 3.51897 
2 12.387 -5.31397 3.37883 
1 -14.2405 -3.37573 3.26808 
1 -12.6348 -3.7058 5.22576 
1 -12.4086 -1.74559 3.49173 
1 -12.5048 -0.149503 5.31022 
1 -10.7804 -1.87992 5.25364 
1 -10.8936 -3.48582 3.46035 
1 -8.92221 -3.60007 5.34787 
2 -9.11939 -1.67341 3.65471 
1 3.36842 -5.2284 12.5286 
1 -7.13706 -1.63228 5.43803 
2 -7.20356 -3.47045 3.64671 
1 -5.34405 -3.55792 5.38854 
1 -5.3457 -1.73605 3.65741 
2 -3.66088 -1.72267 5.35998 
2 -1.81403 -3.4867 5.36308 
1 -3.53709 -3.45695 3.60143 
1 -1.62444 -1.64547 3.64425 
1 0.107255 -3.55433 3.56987 
1 -3.47204 0.0393931 14.1407 
1 -0.191145 -5.22121 12.1979 
1 -1.95532 -7.0777 12.5373 
1 0.0505192 -1.77698 5.37755 
1 1.77132 -3.63463 5.3488 
1 3.59303 -1.76837 5.42297 
1 3.64061 -3.43835 3.65159 
1 1.82671 -1.80434 3.64631 
1 -5.34483 0.100961 -5.3698 
1 7.17583 -1.73966 5.33291 
1 7.23175 -3.56415 3.60717 
1 5.47268 -3.43632 5.31959 
1 5.41257 -1.79524 3.56124 
1 5.42288 0.0562458 5.33589 
2 10.7267 -1.83841 5.38936 
1 10.7622 -3.597 3.53082 
2 8.97595 -3.68293 5.39882 
1 8.94228 -1.68178 3.59537 
2 12.5325 -1.7765 3.42812 
1 12.5602 -3.6004 5.38399 
1 14.2298 -3.73256 3.37157 
1 14.4521 -1.83558 5.15771 
1 -3.86975 -5.30597 12.6179 
1 -8.91283 -8.91804 7.02131 
1 -5.15942 -8.99416 10.664 
1 -5.33834 -10.654 8.82741 
1 -7.14776 -10.7568 7.0977 
2 -7.13873 -8.95118 8.88128 
1 -5.38243 -8.94078 6.99961 
1 -1.70324 -12.3294 7.09896 
2 -1.99218 -8.8797 10.7699 
1 -1.63024 -10.5878 8.88961 
1 -3.57966 -10.8157 7.19678 
1 -3.57195 -8.9387 8.79322 
1 -1.75665 -8.82292 7.13876 
1 -0.0555982 -8.79785 9.13236 
1 0.0509339 -10.6393 7.11439 
1 1.70347 -12.3235 7.06268 
1 1.5974 -10.723 8.99485 
1 3.36671 -10.5387 7.16633 
1 3.34103 -8.84139 9.02679 
1 1.77458 -8.7408 7.16564 
1 1.70544 -8.93573 10.721 
1 7.17189 -10.8911 7.09564 
1 5.28677 -8.70469 10.5359 
1 5.17517 -10.4827 8.75866 
1 7.08817 -8.97874 8.78267 
1 5.21623 -8.74901 7.16772 
1 9.01016 -9.05728 7.15241 
2 -10.6956 -6.96424 7.12794 
1 -10.5548 -5.26327 8.96316 
1 -8.9364 -7.31575 8.9068 
1 -8.79277 -5.47444 7.00564 
1 -8.7666 -5.26403 10.4539 
1 -6.95797 -7.11792 10.6407 
1 -7.12899 -5.46003 8.80922 
1 -5.3467 -7.11326 8.94747 
1 -7.17359 -7.12911 6.98386 
1 -5.41725 -5.40959 7.01494 
1 -5.46328 -5.26245 10.7396 
2 -3.81414 -6.93427 10.8094 
1 -1.97653 -5.27812 10.783 
1 -1.95358 -7.20419 9.04276 
2 -3.5766 -5.33338 8.85115 
1 -3.64933 -7.11776 7.17577 
1 -1.86904 -5.25842 7.13201 
1 -0.0835927 -7.12289 7.14467 
2 -0.230553 -5.29624 8.97612 
1 -0.170584 -7.03028 10.7113 
1 3.46025 -6.99357 10.7859 
1 1.77052 -5.24692 10.6057 
1 1.59143 -7.09844 8.95598 
1 3.56611 -5.19187 8.99357 
1 3.47445 -7.12228 7.08023 
2 1.76758 -5.37881 7.25398 
1 7.0712 -7.04772 10.6192 
1 5.24826 -5.4133 10.7266 
1 5.28699 -7.07565 8.78413 
1 7.10327 -5.27267 9.00375 
1 7.1029 -7.16325 7.15769 
2 5.38258 -5.243 7.13787 
1 8.80368 -5.25453 10.5846 
1 10.7835 -5.11869 9.25107 
1 10.7901 -7.01048 7.14302 
1 8.87358 -7.22877 8.83783 
1 8.93774 -5.46738 7.26884 
2 -12.1739 -1.82888 7.17527 
1 -8.99986 -1.72399 10.5805 
1 -10.9977 -2.99636 9.37822 
2 -10.7331 -3.80167 6.9497 
1 -8.76827 -3.47311 8.81673 
2 -9.09411 -1.65739 7.29133 
1 -10.8967 -0.630781 9.20114 
1 -7.10776 -3.44636 10.5646 
1 -5.44833 -1.68197 10.6537 
1 -7.16709 -1.66526 8.95833 
2 -5.5133 -3.58445 8.78872 
1 -7.17771 -3.51001 7.09595 
1 -5.48089 -1.66659 7.14553 
1 -0.224325 -8.66792 12.4592 
1 -3.68342 -3.52222 10.6725 
1 -1.81534 -1.59987 10.7832 
1 -3.71863 -1.67918 9.10024 
2 -1.90266 -3.35485 9.05505 
1 -3.70033 -3.43476 7.14572 
1 -1.87007 -1.62498 7.2298 
1 -0.128108 -1.62864 8.88259 
1 0.0483236 -3.48224 10.5468 
2 12.6225 -1.9699 7.07187 
1 3.12702 -0.00663801 14.3535 
2 -0.037222 -3.49402 7.24508 
1 1.85725 -1.77603 7.17847 
2 3.62084 -3.46908 7.13374 
1 1.70737 -1.64623 10.6856 
1 1.93859 -3.47161 8.99096 
1 3.53472 -1.64114 9.0434 
1 3.56241 -3.52163 10.7388 
1 3.60119 -0.0253463 7.09988 
1 10.2863 0.0334122 -10.8492 
1 5.34128 -0.139454 9.04976 
2 10.4082 -0.00238722 -7.30595 
1 7.3001 -0.146106 10.8774 
1 7.16862 -1.75709 9.01121 
1 5.38616 -3.522 8.95064 
1 7.09724 -3.56422 10.7442 
1 5.44522 -1.75695 7.15116 
1 7.08599 -3.49308 7.17524 
1 5.21998 -1.86927 10.7328 
1 10.7524 -3.73149 7.21424 
1 8.93001 -2.18675 10.7953 
2 10.7663 -1.97859 9.03796 
1 8.90424 -3.67346 8.87346 
1 8.91656 -1.85174 7.2447 
1 -7.2972 0.0100661 -7.09431 
2 9.03995 -0.0414723 9.15353 
1 -12.5139 0.0466231 -5.33748 
1 -10.7193 0.0765879 -3.4295 
1 10.5848 0.10254 -3.7263 
1 -10.7617 -0.0401175 -0.139713 
2 14.1726 0.0992854 3.406 
1 -1.77817 0.0861356 5.38035 
2 10.8598 0.13277 3.45352 
1 -1.82508 0.042426 8.99283 
1 12.5338 0.0632534 1.50441 
2 -0.0324746 0.107635 7.1405 
1 5.45878 0.0726573 1.95345 
2 3.60656 -0.0848593 0.0516589 
1 1.81552 -0.140648 -1.85672 
1 -1.75579 0.0883911 12.45 
1 -12.541 -0.0375351 -1.76968 
1 -0.112964 0.145805 10.6649 
1 -8.90499 -0.119846 -8.88033 
1 -7.17378 0.0694196 -10.6743 
1 -7.29554 1.80826 -12.3212 
1 -5.46978 3.52901 -12.6531 
1 -5.48015 0.0597458 -12.8013 
2 -1.64514 1.991 -14.3402 
2 -3.57892 1.80454 -12.4659 
1 -1.95225 3.62207 -12.3551 
1 -0.19278 3.92926 -14.2673 
2 -0.0885634 1.83954 -12.4873 
1 -3.66345 -0.0669029 -14.3863 
1 0.0476513 5.22699 12.5794 
1 3.44869 3.4717 -14.2725 
1 3.43481 1.92086 -12.594 
2 1.56358 3.75113 -12.599 
1 1.40058 1.94667 -14.4231 
1 5.25476 1.9125 -14.4028 
1 7.05731 1.95796 -12.6427 
1 5.21696 3.69012 -12.6234 
1 -1.92953 7.28742 -12.6156 
1 -3.66061 5.37996 -12.536 
1 -0.208214 5.46688 -12.4878 
1 1.52768 7.11712 -12.3575 
1 3.39073 5.45412 -12.51 
1 -12.3167 1.85995 -7.26763 
1 -11.1284 3.0314 -9.20563 
1 -9.18282 1.89861 -10.429 
2 -8.89656 3.79096 -8.74168 
2 -9.30022 1.78801 -7.33031 
1 -10.9296 4.00766 -6.90499 
1 -11.1322 0.615803 -9.29785 
1 -7.33201 3.70876 -10.919 
2 -5.42626 1.86697 -10.7317 
2 -7.21686 1.85222 -8.90248 
1 -5.51206 3.70491 -9.07756 
1 -7.1031 3.74623 -6.91468 
2 -5.36626 1.91361 -7.09193 
1 1.72142 6.80477 12.5496 
1 -3.61723 3.57335 -10.6859 
1 -1.73689 1.80194 -10.599 
1 -3.66839 1.77303 -8.90204 
2 -1.83804 3.56473 -8.86301 
2 -3.64435 3.6373 -7.1088 
1 -1.81393 1.79065 -7.19474 
1 -0.0609756 3.45549 -7.00254 
1 0.0372648 1.71895 -9.08665 
1 -0.116481 3.60911 -10.6582 
1 3.51934 5.12577 12.397 
1 1.95042 4.71419 14.2553 
1 3.45968 3.54785 -10.7673 
1 1.85437 1.75504 -10.8223 
1 3.45434 1.80399 -9.09704 
2 1.68748 3.5654 -8.98642 
1 3.45286 3.63609 -7.08224 
2 1.73932 1.75334 -7.08894 
1 3.44543 -0.124431 -10.7428 
1 -1.71212 6.9288 12.4829 
2 6.90556 3.70805 -10.7213 
1 5.20551 1.86855 -10.9023 
1 6.99645 1.91069 -9.12174 
1 5.00939 3.62481 -8.86011 
1 7.00709 3.49132 -7.26055 
1 5.24118 1.82593 -7.26644 
1 -3.53845 5.36634 12.5278 
2 5.30754 0.00757443 -8.9684 
1 8.77854 2.138 -10.9609 
2 10.5529 1.97621 -9.01409 
1 8.80857 3.6945 -8.92515 
1 8.83077 1.88225 -7.36815 
1 10.7243 3.87256 -7.16336 
1 6.97382 1.66274 12.6615 
2 12.3125 1.77153 -7.28331 
1 5.38676 3.42445 12.4249 
1 3.4927 1.77487 12.6031 
1 -10.8269 5.45192 -8.82959 
1 -10.8308 7.1639 -6.96815 
1 -8.99696 7.27814 -8.73315 
1 -8.92549 5.45812 -6.92057 
1 -8.85699 5.60245 -10.4521 
2 -5.54329 5.4644 -10.8068 
1 -7.12802 7.30306 -10.5176 
1 -7.0424 5.4348 -8.78336 
1 -5.29446 7.22767 -8.81514 
2 -7.24146 7.27322 -6.99984 
1 -5.37469 5.47501 -7.02718 
2 -3.6569 7.31597 -10.8526 
1 -1.95231 5.63358 -10.7721 
1 -1.85147 7.29742 -8.81275 
2 -3.67363 5.53917 -8.98201 
1 -3.56142 7.25839 -6.97405 
1 -1.98637 5.39863 -7.09798 
2 -0.277644 5.40253 -8.88919 
1 -0.183738 7.239 -7.03111 
1 -0.0850078 7.25692 -10.6975 
1 3.42459 7.07135 -10.7192 
1 1.56292 5.3984 -10.6907 
2 1.6992 7.31784 -8.83874 
1 3.33884 5.39836 -8.8303 
1 3.3937 7.11894 -7.03965 
1 1.6309 5.4197 -7.14203 
1 6.98939 7.0244 -10.5211 
1 4.9897 5.46278 -10.6049 
1 6.93084 5.37056 -8.91476 
1 5.12782 7.11351 -8.78695 
1 7.00564 7.19774 -7.22628 
1 5.30497 5.33469 -7.19544 
1 8.91903 5.28742 -10.6676 
1 10.5779 5.27136 -8.90834 
1 8.8401 7.1679 -8.89139 
1 8.75249 5.41046 -7.15956 
2 10.4981 6.98277 -7.04357 
1 -9.14167 8.99186 -7.0021 
1 -5.40894 9.0811 -10.4022 
1 -5.38724 10.6639 -8.53175 
1 -7.17833 8.92194 -8.81873 
1 -5.4515 8.86727 -6.94316 
1 -7.38357 10.6087 -7.10403 
2 -1.75309 8.98065 -10.6707 
2 -1.82779 10.766 -8.82195 
1 -3.50954 10.9018 -7.07615 
1 -3.52309 9.00437 -8.77976 
1 -1.82645 9.02536 -7.06409 
1 -0.106416 10.692 -6.98709 
1 -0.0845176 9.10451 -8.76935 
1 -0.134641 12.4893 -8.74496 
1 1.55761 9.09526 -10.7404 
1 1.70146 10.7886 -8.9126 
1 3.2427 10.6888 -7.13504 
1 3.48235 9.0255 -8.75845 
1 1.62642 8.93998 -6.94238 
1 5.14972 8.84796 -10.5503 
1 5.24181 10.8384 -8.66162 
1 7.06308 10.7211 -6.86689 
1 6.92835 8.97531 -8.943 
1 5.15303 8.98204 -7.11678 
1 8.82288 8.96152 -7.06706 
1 -1.69252 12.6426 -6.87715 
2 1.58553 12.64 -6.9919 
2 -14.3902 3.57653 -3.36567 
2 -12.6117 3.54566 -5.25415 
1 -14.2435 0.0441857 -3.65683 
2 10.7555 0.0832246 7.20004 
1 -12.5598 1.78046 -3.4509 
2 -10.8629 1.91044 -5.27675 
1 -10.7811 3.66924 -3.48879 
1 -9.0034 3.67666 -5.403 
2 -8.96584 1.86511 -3.55226 
2 -3.56562 0.0237307 7.16977 
1 1.73051 3.49803 12.2659 
1 -7.21791 1.74787 -5.34776 
2 -7.158 3.52056 -3.5502 
1 -5.37483 3.67051 -5.31277 
1 -5.27876 1.81617 -3.62606 
2 -7.11284 0.0686454 -3.53863 
1 1.6709 1.96018 14.2663 
1 -3.57049 1.7906 -5.32103 
1 -1.87631 3.63117 -5.27395 
1 -3.5946 3.68451 -3.56613 
1 -1.86595 1.65759 -3.59075 
1 -0.173359 3.61265 -3.68971 
1 -0.105079 1.66405 -5.33117 
1 -1.8874 1.78428 14.4231 
1 -3.58813 -0.0489138 -3.50563 
1 3.67767 1.80427 -5.3335 
2 1.78946 3.53576 -5.34317 
1 3.65766 3.59433 -3.6402 
2 1.87725 1.71809 -3.50208 
2 -3.7196 1.74367 12.3646 
1 6.88074 1.85333 -5.43225 
1 7.11674 3.57146 -3.66397 
1 5.21879 3.6696 -5.42251 
1 5.29934 1.78104 -3.63318 
1 10.5989 1.90379 -5.46409 
1 10.7103 3.5702 -3.71581 
2 8.86801 3.49457 -5.54688 
1 8.92959 1.87186 -3.51214 
1 -3.53868 3.51642 14.2999 
1 -5.51894 0.0728469 8.92605 
1 12.4568 3.5398 -5.45795 
2 -1.79575 3.59069 12.3469 
1 12.5863 1.97705 -3.81962 
1 14.2521 3.71593 -3.41436 
1 -12.7841 5.48796 -3.47624 
1 -10.9512 7.36218 -3.38652 
1 -11.0032 5.73578 -5.1045 
2 -9.05008 7.23744 -5.15855 
1 -9.01686 5.33636 -3.59643 
1 -7.13636 7.22368 -3.49779 
1 -7.10246 5.45768 -5.11612 
1 -5.44711 7.15138 -5.18659 
1 -5.35798 5.35869 -3.47754 
1 -1.83521 7.17816 -5.31031 
1 -3.50888 7.22068 -3.47648 
1 -3.60941 5.46521 -5.29699 
1 -1.815 5.38659 -3.42546 
1 0.00739851 5.36218 -5.29697 
2 0.00976053 7.17979 -3.50963 
1 1.69736 7.17799 -5.23123 
2 3.5302 7.1894 -3.53338 
1 3.52033 5.38536 -5.34833 
1 1.73276 5.36431 -3.45674 
1 7.05924 7.04048 -3.66186 
1 7.11847 5.34037 -5.46682 
2 5.25396 7.16618 -5.55339 
1 5.2932 5.30869 -3.6176 
1 10.7746 7.13584 -3.7232 
1 10.5798 5.35427 -5.28722 
1 8.86464 7.01361 -5.26899 
1 8.8159 5.34252 -3.61082 
2 12.4236 5.30354 -3.69208 
1 -10.7117 9.09114 -4.98946 
1 -8.98976 11.0048 -5.10941 
1 -8.81472 9.0313 -3.46185 
1 -10.4692 10.9278 -3.29049 
1 -7.20376 10.8684 -3.39776 
1 -5.48085 10.9479 -5.50589 
1 -7.11627 9.08442 -5.2475 
1 -5.37839 9.00596 -3.41356 
1 -5.34702 12.4589 -3.5243 
1 -1.75847 10.6704 -5.20049 
1 -3.72201 10.7757 -3.58587 
2 -3.64364 9.07033 -5.26153 
1 -1.90965 8.94454 -3.47026 
1 -1.76778 12.3265 -3.3833 
1 -3.43283 12.5667 -5.28939 
1 -0.0923384 10.5664 -3.35258 
1 -0.0875658 8.95377 -5.25803 
2 1.60936 10.7988 -5.18271 
1 3.53192 10.6743 -3.50432 
1 3.43374 8.92457 -5.29768 
1 1.85577 8.9844 -3.40757 
1 7.25843 10.8163 -3.52961 
2 5.13825 10.6432 -5.3205 
1 7.05514 8.88259 -5.32887 
2 5.35516 8.96873 -3.48312 
1 10.545 9.00074 -5.32076 
1 8.78212 10.7593 -5.19632 
1 8.75691 8.86339 -3.59076 
1 -0.202375 12.5051 -5.10288 
1 -3.49126 14.0895 -3.37375 
1 3.57912 12.4735 -5.36692 
1 1.77452 12.4064 -3.44774 
1 -0.0640362 14.1373 -3.38799 
2 1.75132 14.1229 -5.06521 
1 3.66968 14.3106 -3.63965 
1 5.41436 12.5109 -3.54641 
1 -14.2575 3.44614 -0.0761145 
1 -14.4043 1.68334 -1.75988 
1 -14.3353 1.64418 1.622 
2 -12.5646 3.52153 1.83055 
1 -12.4838 1.72082 -0.100726 
1 -12.6098 3.7511 -1.81857 
2 -12.5279 0.0635208 1.59142 
2 -10.8594 3.67321 0.0330706 
1 -10.7077 1.84193 -1.68476 
1 -10.8148 1.79951 1.79567 
1 -8.89551 3.59835 -1.74499 
1 -8.957 3.67995 1.76063 
1 -9.04102 1.95039 0.0413534 
2 -0.191657 3.58384 14.286 
1 -3.53879 0.0430295 3.53654 
1 -8.96829 0.0770624 -1.66573 
1 -0.0988978 1.85349 12.54 
1 -7.13451 3.5647 0.0178647 
1 -7.15739 1.86748 -1.73797 
1 -7.26924 1.8711 1.7684 
1 -5.38303 3.57561 -1.71631 
1 -5.3702 3.6962 1.71199 
1 -5.23362 1.92295 0.0693807 
1 -5.27525 0.196939 -1.63248 
1 -7.14113 0.108384 0.0403948 
2 -3.51383 3.62277 0.10136 
1 -3.47771 1.87621 -1.81387 
2 -1.7481 3.59786 -1.79223 
1 -3.51889 1.81418 1.76114 
1 -1.71666 3.50974 1.81119 
1 -1.53493 1.78499 0.00533063 
1 -3.43833 0.154894 0.0243626 
1 -0.0621842 1.72604 -1.95195 
1 -0.0105365 1.84104 1.78544 
1 -0.0217724 3.58299 -0.00121111 
1 -1.80059 0.0727169 -1.83438 
1 -1.65239 0.108274 1.73384 
2 3.53846 3.54694 0.0415497 
1 3.56484 1.60627 -1.84383 
2 1.62668 3.59057 -1.88154 
1 3.67968 1.7794 1.82186 
1 1.77558 3.61758 1.83098 
2 1.6305 1.791 -0.0891372 
1 7.09739 3.64369 0.134943 
1 7.10969 1.84816 -1.83877 
1 7.18205 1.86262 1.98076 
1 5.37047 3.51853 -1.8707 
1 5.48994 3.46572 1.93614 
2 5.50292 1.84174 -0.0761174 
1 5.49558 -0.011618 -1.81552 
1 10.658 3.80084 -0.0366233 
1 10.8738 1.89448 1.68872 
2 10.665 1.90325 -1.83917 
1 8.89225 3.64095 -1.72499 
1 9.07437 3.45632 1.7872 
1 8.90895 1.78825 -0.0205167 
2 9.00325 0.155394 1.802 
1 10.7094 0.0389346 -0.105876 
1 12.5328 1.95651 -0.0641992 
1 12.5764 3.79102 1.70442 
1 8.88737 -0.0716545 -1.83696 
1 -7.24595 1.79486 12.3978 
1 12.4889 3.71118 -1.87513 
1 14.1515 3.71042 -0.158158 
2 14.1544 1.83264 -1.89125 
1 14.189 1.90314 1.68817 
1 14.3312 0.136 0.000563521 
1 -12.696 5.50173 -0.00742754 
1 -12.4004 6.9809 1.81802 
1 -12.6391 7.1387 -1.71557 
1 -10.7066 6.97589 -0.0213843 
1 -10.7902 5.35336 -1.82651 
1 -10.7552 5.36464 1.86975 
1 -8.98665 7.02245 -1.91531 
2 -8.96015 7.04774 1.6188 
1 -8.99186 5.30633 -0.133827 
1 -7.07466 7.08325 -0.0420624 
1 -7.16692 5.32735 -1.77434 
2 -5.31242 7.22373 -1.77464 
1 -7.18637 5.38801 1.66298 
1 -5.3491 7.21788 1.80434 
1 -5.2682 5.44376 0.138822 
1 -3.53606 7.2603 0.0423371 
1 -1.86947 7.31536 -1.70393 
1 -1.82181 7.14593 1.91344 
1 -3.6103 5.39533 -1.7814 
1 -3.51807 5.40891 1.83074 
2 -1.71014 5.44009 0.107979 
1 -0.0225145 5.46714 -1.74883 
1 -0.0127107 7.28138 0.236485 
1 0.0228267 5.2915 1.84992 
1 3.54077 7.04031 0.0787375 
1 1.84452 7.03144 -1.60281 
2 1.87595 7.05672 1.90774 
1 3.56312 5.19942 -1.72312 
2 3.63586 5.31842 1.89315 
1 1.75889 5.42785 0.0676482 
1 7.20675 7.12097 -0.0412647 
1 7.15134 5.2534 -1.83602 
2 5.34644 6.97396 -1.72258 
1 7.17916 5.23744 1.75696 
1 5.51251 7.04696 1.92983 
1 5.44859 5.40077 0.195116 
1 10.6777 7.1623 -0.331082 
1 10.7697 5.26981 1.77357 
1 10.6478 5.22515 -1.91615 
1 8.85722 7.17044 -1.79826 
2 9.25092 7.26827 1.74457 
1 8.9194 5.41054 -0.129967 
2 12.0084 7.41921 1.66406 
1 12.4571 5.47804 -0.0831839 
1 12.2838 7.26824 -1.88124 
2 -8.90073 10.7146 -1.39888 
1 -9.04577 10.6216 1.6083 
2 -10.6979 8.89111 -1.64881 
1 -10.8155 8.83193 1.42229 
1 -8.79123 8.7456 -0.0473443 
1 -7.07621 10.493 0.0554765 
1 -5.37319 10.7329 1.90242 
1 -5.28641 10.6795 -1.58127 
1 -7.10112 9.05996 -1.77128 
1 -7.1338 8.95111 1.76054 
1 -5.22542 8.88853 0.125874 
1 -3.597 10.8609 0.378867 
2 -1.63698 10.8929 1.9645 
1 -1.75217 10.7401 -1.52903 
1 -3.44988 9.11218 -1.70075 
2 -3.58839 9.03913 1.98863 
1 -1.87545 9.05246 0.304029 
1 -3.45176 12.3963 -1.62778 
1 0.0302854 8.94856 1.99204 
2 0.0681098 9.0368 -1.54838 
1 0.0631569 10.7192 0.113883 
1 3.69973 10.6637 0.268376 
1 1.88174 10.6325 2.00396 
1 1.95634 10.7086 -1.70801 
1 3.50883 8.99041 -1.60068 
1 3.65004 8.91352 2.12411 
1 1.98522 8.94093 0.190515 
1 7.1422 10.5478 0.0293458 
1 5.45466 10.615 1.9745 
2 5.31105 10.7772 -1.61813 
1 7.10916 8.94539 -1.75505 
1 7.23167 8.79281 1.92158 
2 5.40782 8.77055 0.272319 
2 7.27505 12.2494 1.6297 
1 7.10667 12.4786 -1.45244 
1 10.5449 8.99303 -1.91918 
2 11.1076 9.37341 0.545956 
2 9.14295 10.5515 1.71043 
1 8.94703 10.6571 -1.77846 
1 8.84519 8.93214 -0.0858377 
1 -7.2293 12.5147 -1.60944 
2 -5.37948 12.3755 0.175127 
1 -7.36968 12.2953 1.68221 
2 -5.29526 14.0517 -1.61949 
1 -1.72915 12.5259 0.0849115 
2 -3.64776 12.5986 2.05965 
2 -3.52671 14.1276 0.0563254 
1 -1.74697 14.2203 -1.64213 
2 -1.69228 14.1436 1.85788 