ITEM: TIMESTEP
1100000
ITEM: NUMBER OF ATOMS
1289
ITEM: BOX BOUNDS pp pp pp
-100 100
-100 100
-100 100
ITEM: ATOMS type x y z 
1 -1.83782 -6.97982 -12.4287 
1 -3.5299 -5.25593 -12.6088 
1 -0.195502 -5.33384 -12.4158 
1 1.55163 -7.04337 -12.4799 
1 3.32349 -5.31959 -12.6162 
1 -7.26738 -1.96073 -12.2014 
2 -5.43475 -3.50059 -12.6066 
2 -1.9111 -1.69466 -14.3175 
2 -3.7203 -1.79633 -12.3742 
1 -1.8758 -3.42786 -12.4872 
1 -0.0974729 -1.81461 -12.5452 
1 -0.101672 -3.55985 -14.2722 
2 3.47099 -3.07408 -14.1878 
1 1.59582 -3.55157 -12.5548 
1 3.3151 -1.76152 -12.2944 
1 1.53524 -1.72457 -14.7714 
2 3.61896 -0.288527 -14.3437 
2 1.65631 0.0231624 -12.6057 
1 5.5397 -1.7504 -14.2513 
2 7.1862 -1.79831 -12.5365 
2 5.24092 -3.49406 -12.3982 
1 10.1662 0.1157 -10.7498 
1 -1.86911 -12.7144 -7.09513 
1 1.79087 -12.4613 -7.09635 
1 -9.03552 -9.13635 -7.03777 
2 -5.43424 -10.7995 -8.66589 
1 -5.44868 -9.16103 -10.6902 
1 -7.15584 -10.6148 -6.87136 
1 -7.29512 -9.07238 -8.94999 
1 -5.28198 -9.00403 -7.03334 
1 -1.99642 -10.8836 -8.77555 
1 -1.9454 -8.91134 -10.6045 
1 -3.67369 -10.818 -7.00376 
2 -3.63353 -9.01272 -8.82992 
1 -1.99163 -8.88499 -7.07139 
1 -0.0896312 -8.85278 -8.84539 
2 -0.128524 -10.7611 -7.17605 
1 -0.247665 -10.6056 -10.4828 
2 1.81564 -10.6205 -8.91015 
1 1.66169 -8.72955 -10.6882 
1 3.65473 -10.7671 -7.14149 
2 3.57534 -8.95252 -8.83813 
1 1.85958 -8.92076 -7.09614 
1 5.50318 -10.6239 -8.84586 
1 7.12151 -8.80267 -8.86527 
1 5.27431 -8.79713 -7.01764 
1 7.15838 -10.529 -7.04857 
1 5.31939 -8.81567 -10.6252 
1 8.92253 -8.80335 -7.20093 
1 -10.6497 -5.40036 -8.80114 
1 -9.08939 -5.36131 -10.5991 
1 -8.99974 -7.27563 -8.99702 
2 -8.94721 -5.39868 -7.09211 
2 -10.7022 -7.19538 -7.06296 
1 -7.18791 -7.37596 -10.5795 
1 -5.53085 -5.36887 -10.9732 
1 -7.15336 -5.52157 -8.9392 
1 -5.38225 -7.36004 -8.92657 
2 -7.06499 -7.30702 -7.08822 
1 -5.35764 -5.2951 -7.15712 
2 -3.6526 -7.14094 -10.7793 
1 -2.04015 -5.34793 -10.6748 
1 -1.92812 -7.10314 -8.92609 
1 -3.82682 -5.46472 -9.00801 
1 -3.74115 -7.11151 -7.11001 
2 -1.97702 -5.36503 -7.18793 
2 -0.0708137 -7.24019 -7.03708 
1 -0.187742 -7.18339 -10.6314 
2 -0.198986 -5.31061 -8.9932 
2 3.5011 -7.06591 -10.7609 
1 1.57394 -5.33355 -10.7181 
1 1.71191 -7.09451 -8.8275 
1 3.60122 -5.30802 -8.96668 
1 3.65128 -7.06983 -7.07694 
2 1.85532 -5.2837 -7.18471 
1 7.02225 -7.08543 -10.7056 
1 5.2739 -5.25846 -10.6277 
1 5.35377 -7.17241 -8.85828 
1 7.00957 -5.43766 -8.84043 
1 7.00054 -7.04291 -7.08899 
1 5.19137 -5.29182 -7.12938 
1 8.68447 -5.20809 -10.7286 
1 10.5242 -5.14101 -9.15012 
1 10.7216 -6.79809 -7.17934 
2 8.77001 -6.96007 -8.76524 
1 8.78459 -5.23414 -7.0743 
1 -12.7795 -1.67837 -6.65121 
1 -10.898 -1.90753 -8.85559 
1 -9.09967 -1.65163 -10.6177 
1 -10.7924 -3.63807 -7.05005 
1 -9.02666 -3.60629 -8.93237 
1 -9.02606 -1.89262 -7.11333 
1 -10.8587 -0.204239 -7.05591 
1 -9.07846 -0.161485 -8.6851 
1 -7.26686 -3.59933 -10.5405 
1 -5.48981 -1.75755 -10.5447 
1 -7.17425 -1.82496 -8.77451 
1 -5.52248 -3.65183 -8.95728 
1 -7.20609 -3.63579 -7.2743 
1 -5.32483 -1.78089 -7.21355 
1 -7.18895 -0.0942675 -10.5898 
1 -3.82716 -3.5883 -10.8001 
1 -1.85758 -1.74412 -10.7353 
1 -3.69157 -1.82819 -8.97051 
2 -2.10254 -3.61065 -9.02483 
1 -3.63234 -3.5637 -7.1937 
1 -2.00976 -1.83301 -7.04601 
1 -0.265847 -3.53995 -7.15439 
1 -0.218329 -1.86001 -8.85304 
1 -0.160564 -3.51138 -10.7637 
1 3.44753 -3.5863 -10.743 
1 1.58157 -1.84639 -10.6788 
1 1.64107 -3.58534 -9.01043 
2 3.43484 -1.93473 -8.92723 
1 3.55292 -3.51951 -7.03829 
1 1.63689 -1.76908 -7.22807 
2 1.64967 -0.00995871 -8.99286 
1 3.43117 -0.0881737 -7.15598 
2 7.08224 0.0333928 -7.03845 
1 7.01986 -3.5921 -10.6557 
1 5.33707 -1.83882 -10.6665 
1 7.04262 -1.87677 -8.90212 
1 5.42405 -3.57715 -8.85966 
1 7.01338 -3.6633 -7.01568 
1 5.2633 -1.85517 -7.07391 
2 10.538 -0.0482354 -7.15078 
1 8.72934 -1.99156 -10.6181 
1 10.6465 -3.65147 -7.00327 
1 8.70022 -3.66582 -8.9698 
2 8.75465 -1.99243 -7.04735 
2 10.5386 -1.95751 -8.91788 
1 12.3141 -1.80586 -7.23744 
1 -1.91868 -14.268 -4.86486 
1 -1.80827 -12.464 -3.32252 
1 -3.75971 -12.6223 -5.12863 
1 0.0642596 -12.7309 -5.28445 
2 0.108671 -14.3079 -3.29662 
1 3.53288 -12.4794 -5.29114 
1 5.27778 -12.5578 -3.41947 
1 -10.8425 -8.76963 -5.0356 
1 -8.95814 -10.647 -5.29877 
2 -8.97971 -9.09019 -3.35752 
1 -5.46608 -12.6316 -3.36217 
1 -7.0668 -10.7497 -3.476 
1 -5.36664 -10.8644 -5.28034 
1 -7.25445 -8.95059 -5.19538 
1 -5.38849 -8.90633 -3.54323 
2 -1.82639 -10.8004 -5.34226 
1 -3.56944 -10.7361 -3.57576 
1 -3.72077 -8.88496 -5.33568 
2 -1.80552 -8.80569 -3.62499 
1 -0.0913161 -8.99891 -5.31921 
2 1.99558 -12.5589 -3.4476 
2 0.00704033 -10.7753 -3.48355 
1 1.79724 -10.6994 -5.34305 
1 3.67847 -10.651 -3.39922 
1 3.58054 -9.02914 -5.30956 
1 1.80076 -8.97947 -3.44629 
2 7.09076 -10.7066 -3.71716 
1 5.32346 -10.6174 -5.43471 
1 7.05 -8.84786 -5.3972 
2 5.29036 -8.86336 -3.47351 
1 8.93412 -10.5628 -5.33106 
2 8.77522 -8.71418 -3.58531 
1 10.7447 -8.86545 -5.49893 
1 -12.7092 -5.4057 -3.45629 
1 -10.7934 -7.01388 -3.47801 
1 -10.6751 -5.45322 -5.2441 
2 -9.01389 -7.23366 -5.2355 
1 -8.88731 -5.32089 -3.58505 
1 -7.18441 -7.17984 -3.54065 
1 -7.19372 -5.33864 -5.34546 
1 -5.33035 -7.1488 -5.32977 
1 -5.35601 -5.35759 -3.64697 
1 -1.86244 -7.12709 -5.3063 
1 -3.49622 -7.05027 -3.56061 
1 -3.63997 -5.30697 -5.36494 
1 -1.83608 -5.2983 -3.49733 
2 -0.0734318 -5.33224 -5.23435 
1 -0.00576022 -7.20249 -3.68621 
2 1.86398 -7.21649 -5.30068 
1 3.68276 -6.97524 -3.53508 
1 3.60096 -5.25538 -5.26868 
1 1.84959 -5.18035 -3.5681 
1 7.01927 -7.02725 -3.52733 
1 5.30403 -7.01446 -5.32814 
1 7.00247 -5.38188 -5.28362 
1 5.35022 -5.25555 -3.53096 
1 10.7595 -7.06314 -3.74919 
1 10.8049 -5.29993 -5.31169 
2 8.86511 -7.02413 -5.49038 
2 8.78868 -5.26727 -3.47945 
1 12.6865 -5.19794 -3.44749 
1 -14.3109 -3.48054 -3.52469 
1 -12.5659 -3.78906 -5.35009 
2 -12.6802 -1.66548 -3.89581 
1 -10.6524 -1.76393 -5.3308 
2 -10.873 -3.5794 -3.53195 
1 -8.97872 -3.57972 -5.31412 
2 -8.92091 -1.84698 -3.4093 
2 -7.10255 -1.85763 -5.35384 
1 -7.14047 -3.64413 -3.60975 
1 -5.40702 -3.53122 -5.3944 
1 -5.49124 -1.83617 -3.45132 
1 -3.7365 -1.60706 -5.35434 
1 -1.96376 -3.57627 -5.31473 
1 -3.63159 -3.55951 -3.63312 
1 -1.81969 -1.74983 -3.71489 
1 -0.160933 -1.86018 -5.40358 
1 0.0629177 -3.47119 -3.60772 
1 -0.0364751 -0.0538571 -3.6594 
1 1.7196 -3.48199 -5.41401 
1 3.55611 -1.76475 -5.4351 
1 3.67051 -3.44968 -3.574 
2 1.89699 -1.65965 -3.69765 
1 1.78922 0.0235338 -5.50895 
1 3.50617 0.0483183 -3.48537 
1 7.03126 -1.87329 -5.24534 
1 7.03365 -3.55515 -3.58827 
1 5.28808 -3.53762 -5.408 
1 5.29756 -1.56984 -3.68979 
2 12.4365 -0.0645982 -5.3349 
1 10.6135 -1.81171 -5.26567 
1 10.6749 -3.6059 -3.57802 
1 8.89734 -3.58646 -5.32122 
1 8.77569 -1.83492 -3.57384 
1 12.3292 -1.6728 -3.5546 
1 10.566 0.0735855 -3.65364 
1 8.8174 -0.0890227 -5.30741 
2 12.5053 -3.41235 -5.27882 
2 14.1609 -2.99775 -3.29663 
2 14.1272 -0.0950467 -3.63003 
1 -5.18915 -12.4976 0.103608 
1 -3.53096 -14.2558 0.230361 
1 -2.03892 -14.3228 -1.87372 
1 -1.28114 -14.5182 1.2149 
1 -3.66417 -12.516 -1.71022 
1 -1.7543 -12.5737 -0.118937 
1 0.35389 -14.8617 -0.602443 
1 2.40007 -14.4014 -1.92254 
1 3.39608 -14.3155 0.218055 
2 1.40409 -14.1937 1.67799 
1 5.32811 -14.218 -1.43472 
1 -10.9757 -10.284 -0.0113704 
1 -10.8358 -8.9986 -1.81767 
1 -8.99011 -10.7331 -1.55476 
2 -9.04972 -10.7785 1.49079 
1 -8.88089 -8.83128 -0.0716209 
2 -10.6933 -8.94412 1.93126 
2 -7.06464 -12.3146 1.55892 
2 -6.98362 -12.3298 -1.59676 
1 -7.11898 -10.5012 -0.0630796 
2 -5.151 -10.6599 -1.70492 
2 -5.28641 -10.6145 1.74214 
1 -7.19376 -8.81481 -1.72614 
1 -7.14692 -8.85895 1.63513 
1 -5.36107 -8.86528 -0.072513 
1 -3.37098 -12.4212 1.74035 
1 -3.55107 -10.6946 0.00386507 
1 -1.91957 -10.5473 -1.6946 
1 -1.84159 -10.4717 1.68969 
1 -3.57673 -8.71582 -1.76226 
1 -3.57914 -8.78359 1.74165 
1 -1.89755 -8.71453 -0.152121 
1 -0.0627616 -8.83966 -1.87813 
1 -0.204516 -12.1896 1.58135 
1 -0.0718554 -8.73478 1.57823 
2 1.81429 -12.2956 0.199954 
1 3.60858 -12.3706 1.684 
2 0.122188 -12.4658 -1.59653 
1 -0.11638 -10.495 -0.143078 
1 3.66673 -12.4231 -1.58478 
1 3.69334 -10.5847 -0.0025967 
1 1.8891 -10.6285 -1.71643 
1 1.85602 -10.5018 1.72693 
1 3.57906 -8.79588 -1.65312 
1 3.54866 -8.71787 1.73911 
1 1.77939 -8.80135 -0.0448573 
1 7.12576 -12.358 1.78724 
1 5.40591 -12.4297 0.161969 
2 7.11687 -12.4505 -1.66921 
1 7.04008 -10.6721 0.102528 
1 5.45552 -10.7322 -1.66192 
1 5.26009 -10.5709 1.72427 
1 7.11859 -8.77631 -1.82849 
2 7.06806 -8.83189 1.61716 
1 5.45289 -8.90181 -0.151501 
1 9.01047 -10.5249 -2.07428 
1 9.07356 -12.0965 -0.0786165 
1 10.7608 -8.91438 -1.96263 
1 10.7963 -8.90939 1.69834 
2 8.93164 -9.142 -0.0943393 
1 9.03238 -10.8442 1.95373 
1 -12.6279 -5.3252 0.12167 
1 -12.5674 -7.1223 -1.69041 
2 -10.7036 -7.17661 -0.0540608 
1 -10.7995 -5.32991 -1.77694 
1 -10.9305 -5.43567 1.8247 
1 -9.04797 -7.17102 -1.82467 
1 -8.96735 -7.12317 1.7069 
1 -9.06094 -5.42865 -0.0463446 
1 -7.03756 -7.10038 -0.104492 
1 -7.13886 -5.43951 -1.7874 
1 -5.42132 -7.20337 -1.80858 
2 -7.23845 -5.46843 1.6712 
1 -5.40825 -7.10699 1.7524 
1 -5.31105 -5.38043 -0.118282 
1 -3.65993 -7.11841 -0.0152156 
1 -1.82846 -7.0024 -1.79102 
1 -1.83288 -7.13739 1.6868 
1 -3.58417 -5.33993 -1.83194 
1 -3.70573 -5.39554 1.82301 
2 -1.76956 -5.28191 0.00638498 
1 0.0676328 -7.10526 -0.0987549 
1 -0.102748 -5.27059 -1.95355 
1 0.0494611 -5.2894 1.71652 
1 3.55926 -6.97575 -0.0295633 
2 1.7683 -7.03249 -1.86537 
1 1.81891 -6.98588 1.73861 
2 3.61375 -5.17209 -1.65078 
1 3.49003 -5.32159 1.8569 
1 1.77597 -5.36965 0.0474709 
1 7.22161 -7.04258 -0.180334 
1 5.33583 -7.04217 -1.63834 
1 7.10348 -5.30018 -1.85864 
1 5.30613 -7.00592 1.66466 
2 7.29918 -5.34893 1.74595 
1 5.41806 -5.23731 -0.040991 
1 10.7604 -7.20496 -0.0634535 
1 10.5999 -5.36292 1.73327 
1 10.6349 -5.28758 -1.73627 
1 8.9887 -7.10722 -1.81583 
1 8.91821 -7.10963 1.72811 
1 8.87129 -5.39005 -0.0608962 
1 12.4245 -6.97129 -1.84461 
1 12.4254 -7.03062 1.79703 
2 12.4776 -5.2921 -0.0382684 
1 -14.1295 -3.42596 -0.167882 
2 -14.1802 -1.55468 -1.74221 
1 -14.0379 -1.75145 1.8641 
1 -14.3202 0.0547603 0.0445511 
2 -12.4103 0.00374432 1.85279 
1 -12.5338 -3.50645 -1.82139 
1 -12.4124 -1.83236 -0.0107494 
1 -12.5709 -3.58275 1.80394 
1 -10.9138 -3.62414 -0.0339849 
1 -10.6891 -1.75068 -1.74988 
1 -10.7066 -1.75869 1.77426 
1 -8.96146 -3.61286 -1.69671 
2 -9.14199 -3.66128 1.70148 
1 -8.9478 -1.6651 0.05541 
1 -7.26368 -3.57837 0.0569589 
1 -7.18394 -1.7897 -1.70705 
1 -7.23244 -1.75508 1.78429 
1 -5.4862 -3.70763 -1.91406 
2 -5.32869 -3.62462 1.72582 
2 -5.448 -1.79431 -0.0830132 
2 -5.40903 0.133045 1.79038 
1 -7.07872 0.0678284 0.0597975 
1 -3.59315 -3.53785 -0.048069 
1 -3.70423 -1.81218 -1.81889 
2 -1.87856 -3.50131 -1.76914 
2 -3.54379 -1.65961 1.78979 
1 -1.87969 -3.53818 1.74562 
1 -1.88374 -1.74653 -0.0583716 
1 0.0400097 -3.49973 -0.0366438 
1 -0.0599318 -1.70265 -1.82326 
1 -0.140205 -1.78465 1.72147 
1 -0.13709 0.0672636 -0.0321712 
2 1.69083 -0.0877323 1.7335 
2 3.4749 0.0291285 -0.113639 
2 3.63909 -3.4042 -0.0124284 
2 1.83515 -3.51236 -1.73969 
1 3.68985 -1.6692 -1.86203 
1 1.82663 -3.594 1.6851 
1 3.55373 -1.63717 1.88201 
1 1.75941 -1.6771 -0.0826252 
1 1.69752 0.00103897 -1.77991 
1 7.12159 -3.51862 -0.0736807 
1 7.09281 -1.52577 -1.91954 
1 7.16946 -1.73053 1.73871 
1 5.45188 -3.40612 -1.91839 
1 5.40847 -3.44475 1.80695 
2 5.43666 -1.68779 -0.0324191 
1 5.36263 0.157695 -1.87098 
1 10.6473 -3.50972 0.00129244 
1 10.7312 -1.68518 1.70645 
1 10.64 -1.91193 -1.92681 
1 8.77509 -3.60388 -1.75102 
1 8.94205 -3.57171 1.75602 
2 8.9479 -1.75346 -0.0667857 
1 12.4191 -3.51838 -1.73576 
1 8.83755 0.0812435 -1.78435 
1 10.6288 -0.00419235 0.038275 
1 12.3661 0.167596 1.87416 
1 12.393 -1.78616 0.0857436 
2 12.4899 -3.48783 1.75407 
2 14.2543 -3.57358 -0.216078 
1 14.2591 -1.55094 -1.4706 
1 14.4716 -1.91377 1.78578 
2 12.2851 -0.0682413 -1.7479 
2 -5.22034 -12.4938 3.31467 
2 -3.0302 -14.213 3.06052 
1 -0.281689 -14.0956 3.45727 
1 3.42664 -13.9531 3.33343 
1 1.66571 -12.2685 3.32713 
1 5.31155 -12.4956 3.49743 
1 -10.416 -10.6179 3.64865 
1 -10.5423 -8.95236 5.32343 
2 -8.73755 -8.82212 3.61849 
2 -8.6092 -10.778 5.36743 
1 -7.12154 -10.7853 3.49651 
1 -5.40624 -10.8393 5.30053 
1 -7.17236 -9.03226 5.49295 
2 -5.37211 -8.98953 3.59255 
2 -3.53495 -12.4402 5.13527 
1 -1.70587 -12.2064 3.44212 
1 -1.67088 -10.6018 5.30132 
1 -3.46637 -10.5705 3.49873 
2 -3.49755 -8.77556 5.26044 
1 -1.65773 -8.87931 3.42057 
2 0.137017 -12.423 5.18077 
1 3.43412 -12.4153 5.33451 
1 -0.0444469 -8.81964 5.31563 
1 0.0833225 -10.5232 3.4172 
1 1.76613 -10.5002 5.31663 
2 3.54038 -10.652 3.59207 
1 3.59883 -8.90401 5.47591 
1 1.8179 -8.67505 3.49844 
1 7.1523 -10.6451 3.66928 
1 5.28109 -10.6778 5.41958 
2 7.09495 -8.7547 5.40486 
2 5.33838 -8.81454 3.64337 
1 8.91386 -10.6819 5.36857 
2 8.92362 -8.85768 3.46292 
2 10.5563 -8.79798 5.52754 
1 -12.4919 -5.19406 3.62052 
1 -10.9718 -7.1253 3.61279 
1 -10.8383 -5.44348 5.31104 
1 -8.86971 -7.10265 5.41715 
1 -8.94856 -5.5247 3.59151 
1 -7.04214 -7.16494 3.55197 
1 -7.19072 -5.37917 5.4882 
1 -5.47872 -7.23977 5.42886 
2 -5.40051 -5.36961 3.64336 
1 -1.72198 -7.05858 5.36779 
1 -3.5585 -7.09522 3.45749 
1 -3.63101 -5.35731 5.35155 
2 -1.83351 -5.28682 3.50978 
1 -0.00319303 -7.09148 3.41046 
2 0.0977299 -5.48146 5.32729 
1 1.93693 -7.22889 5.29542 
1 3.51336 -7.09316 3.49485 
1 3.5018 -5.2612 5.3128 
1 1.79639 -5.19767 3.54206 
1 7.10924 -7.04879 3.45044 
1 5.26699 -7.01485 5.37409 
2 7.10754 -5.46111 5.32264 
2 5.31849 -5.31147 3.53909 
1 10.7165 -7.14095 3.64128 
1 10.945 -5.46792 5.3384 
1 8.936 -7.03394 5.39477 
1 9.05331 -5.40739 3.59804 
2 12.5652 -5.31968 3.52675 
1 -14.2078 -0.0778046 3.73706 
1 -12.4971 -0.0280188 5.47191 
1 -14.0822 -3.08227 3.73011 
1 -12.5049 -3.44081 5.54158 
1 -12.2376 -1.67532 3.64452 
1 -10.6607 -1.71736 5.50834 
1 -10.7775 -3.48003 3.64045 
1 -9.09757 -3.65424 5.57949 
2 -9.0266 -1.75064 3.59493 
1 -8.84175 0.0676142 5.37791 
1 -7.23469 -1.79259 5.52263 
2 -7.3523 -3.61085 3.69382 
1 -5.43516 -3.65906 5.3286 
1 -5.46308 -1.97294 3.62049 
2 -3.65424 -1.85181 5.41561 
2 -1.69918 -3.64268 5.31913 
1 -3.57888 -3.48954 3.59025 
1 -1.82241 -1.74092 3.56242 
1 -0.0211769 -3.48538 3.31577 
1 0.0121428 -1.69764 5.2875 
1 -0.10328 0.0411969 3.57136 
1 1.84353 -3.45102 5.30169 
1 3.56833 -1.64772 5.3477 
1 3.6064 -3.46985 3.52452 
1 1.75455 -1.71676 3.63495 
1 3.59069 0.0212317 3.6322 
1 1.83046 0.036911 5.39786 
1 7.18817 -1.8113 5.30891 
1 7.11704 -3.49802 3.57978 
1 5.33065 -3.51608 5.38147 
1 5.2679 -1.76955 3.63699 
1 5.3723 -0.0177515 5.34548 
2 10.7691 -1.71729 5.34076 
1 10.7275 -3.51378 3.50496 
2 8.98266 -3.64822 5.31902 
1 8.92091 -1.91037 3.4652 
2 12.5624 -1.71555 3.56717 
1 8.84864 0.118974 5.35641 
1 12.4723 -3.66965 5.45172 
1 14.343 -3.55381 3.73056 
1 14.2536 -1.75401 5.26156 
1 -9.05048 -9.1223 7.22272 
1 -5.23307 -8.96534 10.6087 
1 -5.24636 -10.5978 8.72929 
1 -6.97559 -11.1175 7.01298 
2 -7.089 -9.08784 8.67124 
1 -5.17168 -9.07404 6.94509 
1 -1.54033 -12.5415 6.97306 
2 -1.71508 -8.91453 10.6757 
1 -1.75515 -10.6859 8.89913 
1 -3.47652 -10.9183 7.1576 
1 -3.52476 -8.85635 8.83156 
1 -1.78096 -8.95285 7.09159 
1 -0.0998519 -8.78368 8.8257 
1 0.00677444 -10.6458 7.10435 
1 1.80266 -12.2795 7.04018 
1 1.59447 -10.6109 8.94578 
1 3.49652 -10.5504 7.21656 
1 3.57395 -8.9404 8.87644 
1 1.73366 -8.78457 7.15532 
1 1.88216 -9.02106 10.6267 
1 7.06855 -10.6438 7.04901 
1 5.1913 -8.92762 10.6714 
1 5.27322 -10.7197 8.83743 
1 6.99557 -9.04918 8.9822 
1 5.41462 -8.87732 7.2035 
1 9.03744 -8.95019 7.18783 
1 -10.4677 -5.52907 9.15774 
2 -10.5925 -7.0006 7.22639 
1 -8.83181 -7.25237 9.04534 
1 -8.77198 -5.44576 7.14741 
1 -8.61326 -5.37328 10.7437 
1 -7.08123 -7.35259 10.6914 
1 -7.15177 -5.52946 8.97897 
1 -5.4263 -7.32134 8.87431 
1 -7.20108 -7.28806 7.16665 
1 -5.5143 -5.45577 7.13003 
1 -5.52286 -5.38583 10.9326 
2 -3.5654 -7.12197 10.7828 
1 -1.72032 -5.49081 10.7174 
1 -1.78397 -7.07186 8.83448 
2 -3.56976 -5.57785 8.99432 
1 -3.5565 -7.09005 7.06132 
1 -1.79919 -5.39942 7.10887 
1 0.115562 -7.06472 7.11877 
1 0.0385718 -7.26217 10.6068 
2 -0.012827 -5.35752 8.92612 
1 3.571 -7.20582 10.6648 
1 1.8517 -5.33205 10.7558 
1 1.83013 -7.19195 8.99152 
1 3.57901 -5.34241 8.98675 
1 3.60116 -7.1756 7.17008 
2 1.9327 -5.36504 7.20694 
1 6.94754 -7.14225 10.6857 
1 5.37066 -5.34239 10.8062 
1 5.38701 -7.2044 8.94982 
1 7.19061 -5.35643 8.90865 
1 7.24167 -7.22721 7.29366 
2 5.3853 -5.29887 7.24853 
1 8.82709 -5.32742 10.7116 
1 10.5646 -5.35144 8.88286 
1 10.6125 -7.02595 7.22975 
1 8.86672 -7.14815 9.09851 
1 8.90499 -5.35429 7.16252 
2 -12.1732 -1.58808 7.48131 
1 -8.98398 -1.75729 10.4154 
1 -10.9433 -2.97076 9.52615 
2 -10.7728 -3.9547 7.30457 
1 -8.79669 -3.81124 9.04262 
2 -9.15742 -1.89898 7.43355 
1 -11.0902 -0.471773 9.31138 
1 -8.76837 0.0523466 8.89352 
1 -7.12712 -3.48087 10.8861 
1 -5.36739 -1.92252 10.8695 
1 -7.14919 -1.80951 9.03507 
2 -5.49282 -3.65965 8.94309 
1 -7.1282 -3.56485 7.05674 
1 -5.43191 -1.88057 7.25208 
1 -7.1317 -0.0256238 7.29553 
1 -3.52443 -3.84009 10.7757 
1 -1.68591 -1.96464 10.6798 
1 -3.5364 -1.83266 8.99244 
2 -1.88314 -3.69825 8.88203 
1 -3.73035 -3.5858 7.17764 
1 -1.82713 -1.81894 7.26282 
2 0.0767819 -3.51869 7.08003 
1 -3.58888 -0.150883 10.7839 
2 -3.49201 0.0248556 7.28981 
1 -1.76967 -0.124508 9.06678 
1 0.126475 -3.59928 10.795 
1 0.0689884 -1.83567 9.06528 
1 1.77036 -1.73241 7.1923 
2 3.56988 -3.40898 7.12912 
1 1.92583 -1.80133 10.7183 
1 1.92243 -3.54612 9.03722 
1 3.5423 -1.74786 9.01869 
1 3.62641 -3.53026 10.5864 
1 1.71019 -0.0432745 8.9578 
1 0.0443213 0.10574 10.7037 
1 7.17852 -3.48333 7.12282 
1 5.3339 -3.52243 8.92175 
1 5.42276 -1.63725 7.18952 
1 7.14948 -1.71603 8.88983 
1 7.18048 -3.52394 10.5795 
1 5.33806 -1.64842 10.6025 
1 7.20587 0.107954 7.01819 
1 8.86321 -3.55583 8.87436 
2 10.7579 -2.07951 9.10092 
1 8.98377 -1.68976 7.20173 
1 9.00884 -1.85531 10.8678 
1 10.8828 -3.66331 7.17481 
2 12.652 -1.64754 7.13657 
1 -0.0672649 -8.6671 12.5201 
1 -0.0630111 -6.4074 14.2258 
1 -1.89832 -7.05096 12.5161 
1 -3.59819 -5.27282 12.6943 
1 3.58908 -5.45979 12.5388 
1 -0.0388485 -5.42987 12.1822 
2 1.75201 -7.13154 12.4903 
1 2.05007 -5.29047 14.1736 
1 -5.36816 -3.33678 12.6688 
1 -7.2542 -1.63135 12.3745 
2 0.206588 -3.75666 13.9138 
1 -1.70615 -3.72166 12.4614 
1 -1.57386 -2.09226 14.1033 
1 -3.43333 -1.9548 12.412 
1 -3.35603 -0.264702 14.1499 
1 3.46333 -1.80018 12.4273 
1 1.94286 -3.63001 12.3343 
1 1.70748 -1.87304 14.0912 
1 3.44202 0.0283309 14.1505 
1 0.0260352 -1.85811 12.2467 
1 -0.0800127 -0.0731269 14.1104 
2 5.30402 -3.53138 12.3318 
1 7.13459 -1.73753 12.271 
1 5.30215 -0.112322 12.5507 
1 -7.44913 1.60889 -12.2873 
1 -5.38949 3.59066 -12.5802 
1 -5.48679 -0.0510245 -12.4413 
2 -2.05108 1.88425 -14.3354 
2 -3.75413 1.79189 -12.4763 
1 -1.73336 3.57121 -12.3698 
2 -0.0375384 1.75606 -12.5759 
1 0.158219 3.48397 -14.4627 
2 -0.0471671 0.115367 -14.6125 
1 -3.68962 -0.102311 -14.2573 
2 -1.86652 0.0134022 -12.3617 
1 3.55248 3.4905 -14.1743 
1 3.60805 1.66416 -12.4906 
2 1.7754 3.6317 -12.5155 
1 1.85961 1.71152 -14.4826 
1 5.27016 1.67311 -14.2869 
1 7.17258 1.6246 -12.5191 
1 5.24806 3.43701 -12.5713 
2 5.22796 -0.116493 -12.332 
1 -1.82069 7.15362 -12.5072 
1 -3.48821 5.15851 -12.6606 
1 -0.13589 5.35124 -12.7155 
1 1.73641 6.81466 -12.5711 
1 3.61642 5.50138 -12.7028 
1 -12.2641 1.81237 -7.45442 
1 -11.2846 2.96067 -9.29816 
1 -9.21963 1.5182 -10.5417 
2 -8.99896 3.73337 -8.9643 
2 -9.21992 1.87383 -7.2985 
1 -10.6639 3.84881 -7.00796 
1 -11.274 0.630859 -9.45103 
1 -7.3604 3.61572 -10.8103 
2 -5.52823 1.88168 -10.6352 
2 -7.34947 1.8276 -8.80779 
1 -5.50303 3.72457 -8.85002 
1 -7.21322 3.59237 -7.01024 
2 -5.2147 1.8139 -7.05267 
1 -5.49985 -0.0412081 -8.92316 
1 -7.09046 0.0490995 -7.07414 
1 -3.6439 3.57446 -10.7084 
1 -1.87579 1.69475 -10.6243 
1 -3.80915 1.75959 -8.96741 
2 -1.89824 3.63196 -8.92154 
2 -3.54705 3.71675 -7.11679 
1 -1.96308 1.77257 -7.20654 
1 -0.254215 3.66468 -7.05562 
1 -0.201155 1.77451 -8.97221 
1 -0.0651873 3.68444 -10.8466 
1 -1.89479 -0.0838438 -8.83873 
1 -0.0534185 -0.103601 -10.7117 
1 -3.47064 -0.0446212 -7.20411 
1 -3.72186 -0.0345037 -10.5504 
1 -0.182968 -0.0808566 -7.11426 
1 3.55137 3.63178 -10.8577 
1 1.84918 1.94648 -10.8163 
1 3.5746 1.77185 -8.84632 
2 1.74012 3.57981 -9.07103 
1 3.53176 3.77098 -7.21031 
2 1.70501 1.77693 -7.22151 
1 3.38051 0.10569 -10.6582 
2 6.96323 3.6241 -10.8714 
1 5.17696 1.82915 -10.7229 
1 7.03972 1.90319 -8.83675 
1 5.28254 3.61976 -8.9763 
1 6.98145 3.65834 -7.19691 
1 5.23281 1.89778 -7.15984 
2 5.33965 -0.0361981 -8.97951 
2 7.14708 0.00118773 -10.7206 
1 8.72076 2.07972 -10.7381 
2 10.526 1.96571 -8.83691 
1 8.71916 3.64805 -8.7694 
1 8.84522 1.84916 -7.01696 
1 10.7586 3.62904 -7.08613 
1 8.69093 0.00844086 -8.92902 
2 12.3916 1.7736 -7.1495 
1 -10.5571 5.47475 -8.89752 
1 -10.7718 6.93693 -7.01182 
1 -8.90722 7.31387 -8.89829 
1 -8.8256 5.49666 -7.08678 
1 -8.75668 5.59003 -10.6542 
2 -5.6019 5.39007 -10.8322 
1 -6.99334 7.39442 -10.6382 
1 -7.12106 5.49044 -8.93595 
1 -5.35328 7.19877 -8.78735 
2 -6.97639 7.2742 -7.14424 
1 -5.51781 5.34864 -7.00798 
2 -3.82108 7.25183 -10.9334 
1 -1.81068 5.47261 -10.7501 
1 -1.99544 7.26368 -8.76884 
2 -3.6935 5.55293 -9.03552 
1 -3.68337 7.07406 -7.00723 
1 -1.7742 5.49367 -7.0968 
2 -0.0607663 5.51309 -8.93282 
1 0.034163 7.25103 -7.18505 
1 0.0318415 7.15667 -10.8924 
1 3.5722 7.17802 -10.8312 
1 1.85748 5.39586 -10.7476 
2 1.74763 7.23271 -9.04344 
1 3.46596 5.41359 -8.96794 
1 3.38343 7.10593 -7.09504 
1 1.6665 5.35371 -7.2064 
1 7.09697 6.99555 -10.6505 
1 5.28827 5.34983 -10.7318 
1 7.04689 5.41672 -8.86286 
1 5.3318 7.1397 -8.8905 
1 7.1413 7.14355 -7.25024 
1 5.2747 5.47197 -7.22897 
1 8.80891 5.18325 -10.6144 
1 10.6601 5.29573 -8.94709 
1 8.99577 7.03822 -9.03436 
1 8.7836 5.41244 -7.15571 
2 10.5526 7.05169 -7.18036 
1 -8.99266 9.04853 -7.09683 
1 -5.2154 9.22792 -10.5021 
1 -5.20396 10.7545 -8.5353 
1 -6.99385 9.03011 -8.77536 
1 -5.23557 8.99826 -6.97011 
1 -7.1483 10.7214 -7.00227 
2 -1.94592 8.79272 -10.689 
2 -1.99896 10.605 -8.94685 
1 -3.45166 10.6696 -6.9772 
1 -3.70051 8.87439 -8.81272 
1 -1.84784 8.92127 -7.08552 
1 -0.11091 10.4761 -7.23345 
1 0.0574139 11.708 -9.4426 
1 -0.070297 8.88201 -8.97019 
1 1.88499 8.89368 -10.9612 
1 2.0244 10.542 -9.11316 
1 3.47916 10.7641 -7.1285 
1 3.625 8.87982 -8.96132 
1 1.73465 9.03734 -7.24666 
2 1.24296 12.3701 -7.39515 
1 5.37952 8.68408 -10.7467 
1 5.29654 10.5303 -8.71992 
1 7.2441 10.7667 -7.12457 
1 7.06556 8.94669 -8.93046 
1 5.33818 8.90816 -7.12067 
1 8.88702 8.80079 -7.23902 
1 -1.58502 12.395 -7.1988 
2 -14.2021 3.3942 -3.2325 
2 -12.7237 3.64087 -5.23974 
1 -14.4077 0.367471 -3.52646 
1 -12.8257 0.40581 -5.44334 
1 -12.4779 1.80728 -3.4717 
2 -10.7129 1.93756 -5.32712 
1 -10.8324 3.5885 -3.46021 
1 -8.81003 3.74651 -5.30208 
2 -8.8767 1.90094 -3.45731 
1 -10.8123 0.0228246 -3.56353 
2 -9.02169 0.0121342 -5.39259 
1 -7.09215 1.86206 -5.40873 
2 -7.18253 3.7262 -3.44833 
1 -5.40654 3.60054 -5.32564 
1 -5.38657 1.85076 -3.59352 
2 -7.07547 0.028672 -3.52928 
1 -5.364 0.0306559 -5.29032 
1 -3.65362 1.79544 -5.28439 
1 -1.86303 3.63299 -5.31394 
1 -3.58689 3.54877 -3.57209 
1 -1.77823 1.75152 -3.53988 
1 -0.164818 1.77846 -5.4454 
1 0.0256127 3.60092 -3.63626 
1 -3.56176 0.0426225 -3.56852 
1 -1.89402 0.111563 -5.40396 
1 3.58132 1.83392 -5.42439 
2 1.75589 3.67153 -5.40931 
1 3.58491 3.65059 -3.68779 
2 1.71657 1.72553 -3.68174 
1 7.10006 1.85296 -5.37559 
1 7.11317 3.56642 -3.51137 
1 5.24889 3.63681 -5.40175 
1 5.24176 1.83057 -3.65783 
1 5.151 0.05719 -5.36847 
1 7.06871 0.0905684 -3.74203 
1 10.5808 1.77179 -5.34737 
1 10.6461 3.56938 -3.6868 
2 8.91005 3.67991 -5.4687 
1 8.9222 1.91418 -3.59728 
1 12.4115 1.78741 -3.73887 
1 12.3891 3.62156 -5.39468 
1 14.0392 3.48078 -3.55159 
1 -12.686 5.468 -3.43432 
1 -10.7125 7.25495 -3.36289 
1 -10.8581 5.38169 -5.06246 
2 -8.90536 7.1824 -5.30549 
1 -9.03143 5.47512 -3.5091 
1 -7.19191 7.19708 -3.4811 
1 -7.10617 5.43906 -5.29874 
1 -5.3983 7.28782 -5.1581 
1 -5.26729 5.32199 -3.63283 
1 -1.78746 7.17358 -5.40263 
1 -3.54567 7.13721 -3.47389 
1 -3.59486 5.4671 -5.26328 
1 -1.74123 5.36414 -3.60383 
2 -0.10001 7.23909 -3.5358 
1 -0.0913133 5.43929 -5.30414 
1 1.67585 7.08201 -5.46391 
2 3.42648 7.0682 -3.67976 
1 3.47427 5.42066 -5.44292 
1 1.75581 5.30977 -3.57605 
1 7.09025 7.08167 -3.69195 
1 7.15969 5.36727 -5.37357 
2 5.4029 7.09796 -5.43771 
1 5.3899 5.23768 -3.68396 
1 10.5685 7.11187 -3.5498 
1 10.5992 5.44018 -5.37713 
1 8.89176 7.13092 -5.41398 
1 8.79135 5.37748 -3.6502 
2 12.3131 5.37599 -3.65998 
1 -10.6479 8.89727 -5.19797 
1 -8.89011 10.6879 -5.26444 
1 -8.90083 8.98557 -3.44102 
1 -10.4834 10.6552 -3.34988 
1 -7.16404 10.9506 -3.56862 
1 -5.37368 10.8696 -5.41851 
1 -7.15734 8.911 -5.22079 
1 -5.45758 9.05731 -3.50489 
1 -1.67269 10.7299 -5.24042 
1 -3.70835 10.9383 -3.41735 
2 -3.51995 9.02217 -5.24226 
1 -1.89243 8.98732 -3.49268 
1 -0.0175954 8.9416 -5.3783 
1 -1.81035 12.5069 -3.44376 
1 -0.0600889 10.7647 -3.49732 
1 -0.184515 12.5053 -5.37539 
2 1.63827 10.8845 -5.38662 
1 3.5342 10.6726 -3.66163 
1 3.5554 8.85749 -5.47277 
1 1.88615 8.97843 -3.70847 
1 1.73946 12.3808 -3.43759 
1 3.69143 12.56 -5.42238 
1 7.25411 10.784 -3.66921 
2 5.50196 10.7948 -5.45033 
1 7.26015 8.89515 -5.47328 
2 5.32382 8.89622 -3.64024 
1 10.6575 8.59605 -5.42406 
1 8.96024 10.5372 -5.3695 
1 8.96615 8.90462 -3.63205 
1 -5.3763 12.668 -3.48839 
1 -3.40447 12.4169 -5.21893 
1 -3.53411 14.351 -3.2995 
1 0.082903 14.0818 -3.54866 
2 1.81116 13.9192 -5.27683 
1 3.61424 14.2585 -3.42068 
1 5.49192 12.7394 -3.68084 
1 -14.264 3.57776 0.0352136 
1 -14.3081 1.71362 -1.48033 
1 -14.3147 1.67952 2.05701 
2 -12.5339 3.56775 1.87016 
1 -12.4676 1.71237 0.0920051 
1 -12.5541 3.73722 -1.74825 
1 -12.4122 0.0963901 -1.79907 
1 -8.95355 0.00375576 -1.79981 
2 -10.8005 3.57751 -0.0477655 
1 -10.7224 1.80708 -1.74391 
1 -10.7868 1.9494 1.90152 
1 -8.92752 3.68705 -1.76601 
1 -8.95907 3.60483 1.85597 
1 -8.99321 1.80609 -0.0280677 
2 -8.91502 0.242715 1.75513 
1 -10.6214 0.0537734 -0.0463318 
1 -7.13104 3.61414 0.0441818 
1 -7.10571 1.75874 -1.73066 
1 -7.1762 1.88716 1.79298 
1 -5.32125 3.5594 -1.74981 
1 -5.39777 3.60633 1.90043 
1 -5.32979 1.86268 0.140428 
1 -5.21387 0.139304 -1.68277 
1 -1.78552 0.0980912 1.78656 
2 -3.65998 3.63647 -0.00563939 
1 -3.59733 1.79192 -1.79541 
2 -1.75527 3.56733 -1.7805 
1 -3.45695 1.86623 1.71756 
1 -1.92852 3.68075 1.83364 
1 -1.78977 1.82867 0.0487151 
1 0.0327512 1.69103 -1.87948 
1 -3.48019 0.148101 -0.00860072 
1 -1.92897 -0.0358354 -1.87765 
1 -0.0977261 1.89317 1.70223 
1 -0.105129 3.71084 0.129783 
2 3.4495 3.68652 -0.0184184 
1 3.39261 1.82497 -1.87052 
2 1.65654 3.6428 -1.78689 
1 3.56602 1.84004 1.89317 
1 1.80505 3.7635 1.83439 
2 1.62394 1.83715 0.180458 
1 5.32365 0.0817521 1.84081 
1 7.04595 0.0889386 0.00267638 
1 7.01825 3.60138 -0.130511 
1 7.1325 1.78381 -1.8069 
1 7.11563 1.95304 1.83474 
1 5.25692 3.58862 -1.83926 
1 5.33167 3.57535 1.81968 
2 5.27462 1.91233 -0.036885 
1 10.6099 3.7033 -0.0418553 
1 10.5508 1.86164 1.76589 
2 10.6389 1.87732 -1.7536 
1 8.92873 3.60562 -1.78554 
1 8.78259 3.62543 1.66602 
1 8.86859 1.85355 -0.0876465 
2 8.79135 0.0802182 1.82367 
1 12.2569 1.88105 0.0522692 
1 12.4452 3.61078 -1.75746 
1 12.5294 3.70199 1.68354 
1 14.1565 3.65793 -0.07578 
2 14.0794 1.70046 -1.83604 
1 14.3276 1.86832 1.53784 
1 14.0665 -0.0286823 0.220289 
1 -12.4246 7.2777 -1.44412 
1 -12.6564 5.43998 0.0412049 
1 -12.3422 7.22033 1.73118 
1 -10.6951 7.13767 0.201774 
1 -10.8318 5.49077 -1.72283 
1 -10.7613 5.25311 1.82967 
1 -8.8334 7.08457 -1.64649 
2 -8.96715 7.25517 1.63053 
1 -8.91452 5.34012 -0.0356359 
1 -7.20365 7.07838 0.112536 
1 -6.97638 5.33183 -1.65289 
2 -5.36239 7.18035 -1.77916 
1 -7.11429 5.35427 1.81845 
1 -5.42574 7.09241 1.83359 
1 -5.31965 5.33772 0.117039 
1 -3.69053 7.10833 0.0711865 
1 -1.86063 7.24563 -1.75514 
1 -1.83089 7.31404 1.84306 
1 -3.49449 5.31747 -1.88585 
1 -3.54188 5.51111 1.92419 
2 -1.83307 5.4067 -0.0270673 
1 -0.105807 7.22172 0.0123994 
1 -0.0835289 5.47091 1.87945 
1 -0.0420233 5.43409 -1.76014 
1 3.57683 7.1569 -0.0846668 
1 1.78324 7.257 -1.89748 
2 1.73276 7.38231 1.70039 
1 3.53287 5.38229 -1.88911 
2 3.632 5.42892 1.83942 
1 1.61667 5.54846 -0.100106 
1 7.1169 7.00211 -0.0621592 
1 7.15696 5.32472 -1.86583 
2 5.32613 6.96389 -1.93061 
1 6.87557 5.40618 1.70008 
1 5.3251 7.1976 1.80865 
1 5.25059 5.298 -0.111598 
1 10.7018 6.99916 -0.194729 
1 10.6863 5.27818 1.71579 
1 10.5873 5.35764 -1.84764 
1 8.8351 7.13986 -1.7195 
2 9.1215 7.23483 1.65113 
1 8.83811 5.35623 0.117052 
2 12.0628 7.23598 1.75938 
1 12.3563 7.08589 -1.84283 
1 12.4505 5.31243 -0.0371855 
2 -8.66408 10.833 -1.75369 
1 -8.99057 10.7858 1.90882 
2 -10.5649 9.03557 -1.43843 
1 -10.6899 9.23335 1.53216 
1 -8.73432 9.22502 0.127214 
1 -7.04129 10.9715 0.18045 
1 -5.20319 10.7818 1.77615 
1 -5.32313 10.9582 -1.65037 
1 -7.06692 8.9921 -1.71175 
1 -7.11461 9.09094 1.76158 
1 -5.50867 8.98321 -0.0365964 
1 -7.18889 12.5469 1.98487 
2 -5.31404 12.603 0.170033 
1 -3.59955 10.8064 -0.0534602 
2 -1.87384 10.7657 1.73451 
1 -1.74098 10.8573 -1.74411 
1 -3.54432 9.02811 -1.83833 
2 -3.68513 8.90392 1.70497 
1 -1.90379 8.99266 -0.0510015 
2 0.0232153 8.95189 -1.75321 
1 0.0454729 10.6312 -0.00222049 
1 -0.0836213 9.00859 1.79764 
1 3.66513 10.6708 0.0136392 
1 1.81732 10.7255 1.73483 
1 1.87499 10.6712 -1.70238 
1 3.59184 8.94969 -1.8729 
1 3.66569 9.00369 1.76264 
1 1.90776 8.95201 -0.036897 
2 1.84162 12.484 0.0292551 
1 7.10583 10.5994 -0.00828111 
1 5.27905 10.705 1.74722 
2 5.43859 10.7872 -1.85465 
1 7.13348 8.8885 -1.89417 
1 7.07003 8.85808 1.79998 
2 5.439 8.88287 -0.0620808 
2 7.04148 12.3583 1.69942 
1 10.715 8.7715 -1.89193 
2 10.8374 9.21261 0.593326 
2 8.9345 10.5124 1.77038 
1 8.90225 10.5741 -1.79603 
1 8.5819 8.80288 -0.137089 