ITEM: TIMESTEP
1120000
ITEM: NUMBER OF ATOMS
1289
ITEM: BOX BOUNDS pp pp pp
-100 100
-100 100
-100 100
ITEM: ATOMS type x y z 
1 -1.77425 -7.15937 -12.2847 
1 -3.63376 -5.26538 -12.3299 
1 -0.179839 -5.36869 -12.3661 
1 1.55885 -7.11197 -12.41 
1 3.10873 -5.37445 -12.5766 
1 -7.29028 -1.66479 -12.1944 
2 -5.57122 -3.45792 -12.2959 
1 -5.53377 -0.0399267 -12.4917 
2 -1.91633 -1.7812 -14.0898 
2 -3.74068 -1.69875 -12.4106 
1 -2.02664 -3.64173 -12.4097 
1 -3.75359 0.033848 -14.2869 
2 -1.83059 0.102027 -12.3153 
1 -0.0453886 -1.74701 -12.5487 
1 0.0371254 -3.59603 -14.2841 
2 -0.124815 0.086326 -14.5071 
2 3.15456 -3.51924 -14.1052 
1 1.53618 -3.6168 -12.3032 
1 3.36605 -1.83505 -12.4082 
1 1.49864 -1.78243 -14.3756 
2 3.38683 -0.314821 -14.2833 
1 5.17958 -1.81197 -14.3375 
2 6.93008 -2.01068 -12.434 
2 5.07133 -3.71454 -12.5118 
1 -1.74216 -12.551 -7.05693 
1 1.91678 -12.3995 -7.04471 
1 -9.08697 -9.0822 -7.17135 
2 -5.24307 -10.5537 -8.86147 
1 -5.20681 -8.95992 -10.8564 
1 -7.13842 -10.653 -7.00599 
1 -7.1956 -8.92962 -9.08821 
1 -5.35281 -8.90628 -6.98165 
1 -2.05057 -10.7197 -8.79609 
1 -1.74234 -8.97509 -10.5864 
1 -3.67577 -10.9511 -6.9984 
2 -3.65009 -8.83319 -8.8581 
1 -1.884 -9.00815 -7.00441 
1 0.0085355 -8.87995 -8.81431 
2 -0.0531568 -10.7555 -7.10117 
1 -0.0876776 -10.747 -10.4125 
2 1.89921 -10.6366 -8.79284 
1 1.65866 -8.83259 -10.6455 
1 3.56907 -10.4667 -7.02604 
2 3.43502 -8.75409 -8.8947 
1 1.83728 -8.76437 -7.03717 
1 5.25713 -10.5413 -9.0119 
1 7.13037 -8.81065 -8.86163 
1 5.43646 -8.87398 -7.17959 
1 6.9905 -10.7226 -7.12363 
1 5.41297 -8.71369 -10.6981 
1 8.85991 -8.91483 -7.20607 
1 -10.7301 -5.35183 -8.73049 
1 -9.08426 -5.29105 -10.4461 
1 -9.09225 -7.3052 -8.96229 
2 -8.84184 -5.39705 -7.141 
2 -10.7378 -7.19198 -7.13602 
1 -7.18033 -7.08323 -10.4963 
1 -5.61161 -5.31285 -10.6756 
1 -7.14025 -5.41886 -8.84654 
1 -5.43334 -7.04699 -8.80418 
2 -7.08795 -7.33436 -7.10888 
1 -5.38557 -5.28473 -7.05695 
2 -3.73538 -7.05806 -10.8187 
1 -1.83768 -5.34169 -10.6873 
1 -1.98197 -7.13052 -8.89392 
1 -3.75662 -5.39109 -8.98337 
1 -3.61961 -7.14537 -7.0396 
2 -2.03531 -5.25184 -7.03525 
2 -0.21203 -7.03857 -7.1415 
1 -0.133416 -7.154 -10.5126 
2 -0.184117 -5.21768 -9.05173 
2 3.56242 -7.15243 -10.8204 
1 1.72484 -5.33535 -10.6279 
1 1.68694 -7.09001 -8.89649 
1 3.55783 -5.4138 -8.93024 
1 3.63165 -7.01268 -7.03333 
2 1.79356 -5.27278 -7.24318 
1 7.01235 -6.81752 -10.6175 
1 5.19082 -5.35152 -10.805 
1 5.34441 -7.00349 -8.84786 
1 7.17427 -5.35559 -8.79088 
1 7.1169 -7.04758 -7.02597 
1 5.3887 -5.25568 -7.13458 
1 8.93038 -5.19526 -10.6566 
1 10.7904 -4.99324 -8.92214 
1 10.9067 -7.10426 -6.92689 
2 8.84649 -7.02291 -8.84899 
1 9.03755 -5.17618 -7.05521 
1 -12.4977 -1.60651 -6.91304 
1 -10.86 -1.85666 -8.83965 
1 -8.95109 -1.88422 -10.4513 
1 -10.8628 -3.4623 -6.9831 
1 -9.05596 -3.61982 -8.88711 
1 -9.05713 -1.8866 -7.18125 
1 -10.855 -0.107277 -7.02667 
1 -7.26406 -3.57118 -10.4562 
1 -5.40424 -1.64759 -10.624 
1 -7.13493 -1.7717 -8.84355 
1 -5.43647 -3.56643 -8.856 
1 -7.07642 -3.538 -7.17738 
1 -5.37004 -1.67623 -7.18277 
1 -5.23882 0.135176 -8.88902 
1 -7.1082 0.0086805 -7.10862 
1 -3.81291 -3.53449 -10.6052 
1 -1.81572 -1.82566 -10.8023 
1 -3.67716 -1.59245 -8.88436 
2 -2.04177 -3.48974 -8.95686 
1 -3.75347 -3.50165 -7.17126 
1 -1.90311 -1.72608 -7.10938 
1 -0.166408 -1.80315 -8.96141 
1 -0.240404 -3.49033 -10.8337 
1 -0.131114 -3.47561 -7.12617 
1 -3.68227 0.160383 -10.6247 
1 -3.6561 0.037283 -7.05725 
1 -0.229568 -0.0687687 -10.5297 
1 3.425 -3.66331 -10.7612 
1 1.55898 -1.75646 -10.6975 
1 1.65181 -3.49204 -8.9828 
2 3.58719 -1.88713 -8.89398 
1 3.62712 -3.57395 -7.06597 
1 1.71366 -1.86082 -7.11975 
1 3.5138 0.0242608 -7.07331 
1 6.97312 -3.75708 -10.592 
1 5.2269 -1.9461 -10.7516 
1 7.03042 -1.83966 -9.02305 
1 5.3487 -3.61094 -8.86074 
1 7.21606 -3.54612 -7.08709 
1 5.34902 -1.75883 -7.12574 
1 8.82992 -2.04257 -10.7375 
1 10.6981 -3.48872 -7.15007 
1 8.92492 -3.64429 -8.84878 
2 8.91202 -1.68474 -7.27188 
2 10.7243 -1.85332 -9.22968 
1 12.6422 -1.69073 -7.42814 
1 -5.48018 -12.5056 -3.53446 
1 -1.73377 -14.0965 -5.18366 
1 -3.65385 -12.6447 -5.36136 
1 0.227278 -12.6756 -5.25698 
2 0.115604 -14.3175 -3.37325 
2 1.86664 -12.4524 -3.57571 
1 3.68633 -12.3683 -5.32403 
1 -10.8748 -8.91711 -5.13923 
1 -8.92007 -10.6414 -5.22611 
2 -8.93554 -8.9985 -3.39252 
1 -7.03153 -10.7301 -3.40006 
1 -5.49528 -10.8553 -5.36219 
1 -7.12604 -8.9987 -5.16819 
1 -5.44737 -8.83327 -3.47642 
1 -1.79835 -12.5353 -3.50788 
2 -1.8851 -10.862 -5.24061 
1 -3.58549 -10.8236 -3.5839 
1 -3.78376 -9.03168 -5.28971 
2 -1.89117 -8.81623 -3.62883 
1 0.0261517 -8.94585 -5.38897 
2 0.0315501 -10.6914 -3.55282 
1 1.89545 -10.6939 -5.37846 
1 3.67671 -10.7069 -3.63269 
1 3.52628 -8.81774 -5.31899 
1 1.85993 -8.93929 -3.55867 
1 5.30584 -12.5824 -3.50004 
2 7.0686 -10.7069 -3.52008 
1 5.47342 -10.6085 -5.44067 
1 7.1757 -8.7772 -5.26966 
2 5.42525 -8.84046 -3.56937 
1 8.67442 -10.7072 -5.26261 
2 8.86883 -8.74543 -3.50219 
1 10.5866 -9.14773 -5.37178 
1 -12.5712 -5.35735 -3.59861 
1 -10.7141 -7.03232 -3.44978 
1 -10.9295 -5.35203 -5.46431 
2 -9.01305 -7.2941 -5.27354 
1 -8.95731 -5.36768 -3.60398 
1 -7.11894 -7.05991 -3.53526 
1 -7.10487 -5.36025 -5.40372 
1 -5.37464 -7.12689 -5.32184 
1 -5.44543 -5.2848 -3.569 
1 -2.06515 -7.14472 -5.28325 
1 -3.77834 -7.16099 -3.47869 
1 -3.68645 -5.34577 -5.25345 
1 -1.96113 -5.22493 -3.5393 
2 -0.117887 -5.24945 -5.25668 
1 -0.110858 -7.0671 -3.53833 
2 1.73463 -7.07831 -5.26603 
1 3.65181 -7.02239 -3.56829 
1 3.67423 -5.24086 -5.33038 
1 1.72565 -5.1377 -3.53622 
1 7.09912 -6.98412 -3.48867 
1 5.39071 -7.09672 -5.3386 
1 7.05334 -5.27011 -5.40286 
1 5.49544 -5.31603 -3.60557 
1 10.9309 -6.95082 -3.73012 
1 10.9267 -5.18942 -5.2837 
2 9.01607 -7.13653 -5.40271 
2 9.01362 -5.33639 -3.64743 
1 12.7011 -5.17191 -3.17465 
1 -14.2578 -3.57552 -3.24279 
1 -12.5827 -3.51284 -5.25716 
2 -12.4798 -1.67038 -3.63723 
1 -10.6849 -1.75608 -5.32659 
2 -10.79 -3.61049 -3.46072 
1 -9.07923 -3.64159 -5.34591 
2 -9.04402 -1.75159 -3.43826 
2 -7.21498 -1.83014 -5.55587 
1 -7.16948 -3.58153 -3.59999 
1 -5.32499 -3.63486 -5.33617 
1 -5.45386 -1.86447 -3.64058 
1 -3.79516 -1.70711 -5.35119 
1 -1.94544 -3.43921 -5.36155 
1 -3.65418 -3.47821 -3.52733 
1 -1.94413 -1.80002 -3.62369 
1 -0.0748423 -1.89693 -5.3975 
1 -0.150693 -3.48041 -3.56186 
1 1.81259 -3.51841 -5.36626 
1 3.59384 -1.83545 -5.36563 
1 3.7139 -3.59406 -3.61581 
2 1.7548 -1.79777 -3.55982 
1 1.869 -0.0788946 -5.37868 
1 7.04546 -1.75092 -5.43068 
1 7.12981 -3.51528 -3.6941 
1 5.33296 -3.51492 -5.34143 
1 5.33824 -1.73004 -3.66944 
1 10.6331 -1.62698 -5.47888 
1 10.5858 -3.49085 -3.63145 
1 8.93424 -3.40716 -5.36253 
1 8.85551 -1.71524 -3.65063 
1 12.0628 -1.65515 -3.50707 
2 12.5656 -3.17995 -5.25763 
2 14.0728 -3.00007 -3.22104 
2 14.1325 -0.196607 -3.50953 
1 -5.22626 -12.4719 0.021242 
2 -6.97435 -12.4254 1.60238 
1 -3.60015 -14.2572 0.208514 
1 -1.89337 -14.3448 -1.82998 
1 -1.46019 -14.1758 1.50595 
1 -3.63232 -12.4097 -1.77023 
1 -1.92991 -12.4568 -0.0046181 
1 0.0980298 -14.4513 -0.457468 
1 2.20459 -14.2467 -1.92914 
1 3.57169 -14.3252 0.0457795 
2 1.42147 -14.0935 1.69817 
2 1.88129 -12.4931 -0.132645 
1 5.21342 -14.1832 -1.73747 
1 5.30058 -12.5748 0.0281778 
1 -10.7326 -10.5668 -0.0284179 
1 -10.8855 -8.91404 -1.77361 
1 -8.99858 -10.8034 -1.7675 
2 -8.95621 -10.8519 1.877 
1 -8.98494 -8.95589 -0.03333 
2 -10.7893 -8.78363 1.76886 
2 -7.13726 -12.3235 -1.48563 
1 -7.18276 -10.48 0.111689 
2 -5.40499 -10.5461 -1.68719 
2 -5.29619 -10.5254 1.76161 
1 -7.25746 -8.89564 -1.73692 
1 -7.25694 -8.77061 1.73154 
1 -5.43691 -8.82981 0.0798545 
1 -3.46222 -12.2691 1.60412 
1 -3.56568 -10.5862 -0.0266033 
1 -1.96634 -10.5379 -1.71466 
1 -1.64505 -10.5142 1.71598 
1 -3.5623 -8.83881 -1.74082 
1 -3.3598 -8.74682 1.74724 
1 -1.77035 -8.7719 -0.0341974 
1 -0.0452972 -10.6096 -0.160998 
1 -0.0849608 -8.81475 -1.90831 
1 0.0766814 -8.7598 1.71291 
2 -0.188967 -12.3637 -1.63611 
1 -0.0189127 -12.3335 1.67237 
1 3.56461 -12.5654 1.7976 
1 3.7254 -12.3371 -1.77899 
1 3.59077 -10.6544 -0.00765021 
1 1.9395 -10.7166 -1.77698 
1 1.76432 -10.7785 1.58298 
1 3.52623 -8.84872 -1.7337 
1 3.38867 -8.93258 1.74655 
1 1.68624 -8.96406 -0.110596 
2 7.0475 -12.4783 -1.64337 
1 7.06424 -12.4547 1.68193 
1 7.00129 -10.6131 -0.148012 
1 5.23493 -10.6095 -1.80757 
1 5.21254 -10.7938 1.77571 
1 7.05837 -8.97851 -1.8163 
2 7.06354 -9.02167 1.73084 
1 5.31029 -8.95043 0.0592382 
1 9.07487 -10.7105 -2.02747 
1 8.88023 -11.947 -0.0114931 
1 10.7173 -8.89721 -1.98714 
1 10.7684 -8.98513 1.75122 
2 8.94802 -9.20159 0.0280144 
1 8.96131 -10.7767 2.13532 
1 -12.6268 -5.28889 0.112152 
1 -12.5481 -7.09883 -1.84532 
2 -10.7958 -7.15685 -0.115948 
1 -10.7659 -5.31852 -1.65269 
1 -10.7245 -5.48505 1.84502 
1 -8.85691 -7.13483 -1.87618 
1 -8.96337 -7.11037 1.57282 
1 -8.93424 -5.42029 -0.125113 
1 -7.1739 -7.19391 -0.1256 
1 -7.07356 -5.25138 -1.81011 
1 -5.4023 -7.07341 -1.69437 
2 -7.04755 -5.52355 1.6855 
1 -5.27125 -7.19772 1.77989 
1 -5.23825 -5.2262 -0.0923704 
1 -3.52725 -7.03736 -0.0423279 
1 -1.87187 -6.88694 -1.86942 
1 -1.731 -7.07406 1.68785 
1 -3.72278 -5.30469 -1.88443 
1 -3.66374 -5.38986 1.86553 
2 -1.96286 -5.21221 0.0153452 
1 -0.0207809 -5.2846 -1.77031 
1 -0.0496147 -7.03422 0.0387425 
1 0.0317262 -5.22601 1.79817 
1 3.49788 -7.04676 0.00862065 
2 1.70904 -7.04669 -1.87291 
1 1.79603 -7.02052 1.7649 
2 3.61378 -5.40689 -1.84613 
1 3.38983 -5.22588 1.70553 
1 1.63241 -5.28941 -0.0235435 
1 7.10116 -7.19101 -0.10833 
1 5.4387 -7.05712 -1.72722 
1 7.10967 -5.31513 -1.77203 
1 5.242 -7.06664 1.70015 
2 7.19849 -5.40706 1.7207 
1 5.40972 -5.28423 -0.038864 
1 10.7131 -7.19779 -0.0138927 
1 10.6065 -5.22225 1.79399 
1 10.6673 -5.245 -1.79111 
1 8.94863 -7.17331 -1.84917 
1 8.92671 -7.08916 1.64819 
1 8.93586 -5.33646 -0.150277 
1 12.3215 -7.0689 -1.73633 
2 12.4999 -5.26817 -0.168122 
1 12.4044 -7.05663 1.87185 
1 -14.1228 -3.41074 0.26331 
2 -14.1463 -1.71712 -1.6556 
1 -14.3476 -1.69798 1.85944 
1 -12.5208 -3.59732 -1.6093 
1 -12.4642 -1.72679 0.000734748 
1 -12.3304 -3.60042 1.86128 
1 -10.7338 -3.5831 0.00647613 
1 -10.7654 -1.66104 -1.7001 
1 -10.569 -1.86148 1.63959 
1 -8.83984 -3.56014 -1.80071 
2 -8.9023 -3.79317 1.68233 
1 -8.89266 -1.82567 -0.0755373 
1 -12.3989 0.0564582 -1.71478 
1 -8.90815 0.10176 -1.5932 
1 -7.07965 -3.48814 -0.152968 
1 -7.27285 -1.7395 -1.83154 
1 -7.15517 -1.70394 1.77112 
1 -5.31496 -3.53926 -1.8533 
2 -5.34762 -3.48653 1.753 
2 -5.43906 -1.62529 -0.159531 
1 -3.64511 -3.4445 -0.038893 
1 -3.65508 -1.65359 -1.83571 
2 -1.82747 -3.4709 -1.84388 
2 -3.40064 -1.66466 1.8135 
1 -1.7271 -3.4691 1.85061 
1 -1.74393 -1.69564 -0.0988478 
1 -0.00906869 -1.68372 1.71754 
1 -0.0582698 -1.62681 -1.80804 
1 -0.0316769 -3.47432 0.00679434 
2 3.58646 -3.52007 -0.0676815 
2 1.81011 -3.44921 -1.82701 
1 3.67662 -1.6966 -1.89819 
1 1.75753 -3.4289 1.72723 
1 3.46932 -1.81363 1.84756 
1 1.81036 -1.80444 -0.0319734 
1 1.73503 -0.0574769 -1.787 
2 3.58637 -0.00356823 0.0227095 
1 7.13223 -3.59805 -0.00552537 
1 7.14933 -1.75176 -2.02082 
1 7.11027 -1.74858 1.86153 
1 5.39248 -3.48927 -1.87175 
1 5.32908 -3.5067 1.7723 
2 5.4546 -1.65801 0.0867387 
1 10.4876 -3.41468 0.00120375 
1 10.4355 -1.73565 1.88369 
1 10.4677 -1.60404 -1.79569 
1 8.78781 -3.53736 -1.8083 
1 8.75743 -3.51941 1.79068 
2 8.69587 -1.79161 -0.0316579 
1 12.1435 -3.28661 -1.74935 
2 12.5041 -3.72082 1.73354 
1 12.2969 -1.81974 0.18255 
1 10.5168 0.00185354 0.0568665 
1 12.2182 -0.105594 1.76732 
2 12.4317 -0.0393855 -1.57503 
2 14.078 -3.4039 -0.427774 
1 14.6227 -1.29708 -1.5378 
1 14.3121 -1.99987 1.65566 
1 14.2625 -0.0727333 0.344145 
2 -5.18241 -12.5013 3.44492 
2 -3.30983 -14.1151 3.16242 
1 -0.198631 -14.2215 3.60307 
2 -3.03223 -12.4947 5.17111 
2 -0.0843171 -12.5076 5.23438 
1 3.21217 -14.1818 3.53393 
1 3.27117 -12.5619 5.36068 
1 5.30536 -12.7066 3.40719 
1 -10.7814 -10.4939 3.62757 
1 -10.7233 -9.01398 5.50381 
2 -8.87261 -8.84912 3.45665 
2 -8.68657 -10.6965 5.17212 
1 -6.96573 -10.7615 3.58899 
1 -5.05262 -10.9283 5.3258 
1 -6.99755 -9.03079 5.44452 
2 -5.32375 -8.86192 3.7207 
1 -1.70922 -12.2401 3.27225 
1 -1.52287 -10.565 5.24392 
1 -3.48652 -10.6072 3.50954 
2 -3.39199 -8.98496 5.37987 
1 -1.72284 -8.93791 3.44861 
1 -0.0666031 -8.85727 5.2799 
1 0.152867 -10.6767 3.42792 
1 1.54575 -12.4852 3.47926 
1 1.71882 -10.7185 5.31639 
2 3.49148 -10.7766 3.57087 
1 3.49398 -8.9655 5.48702 
1 1.82122 -8.87817 3.57686 
1 7.0696 -11.0665 3.71364 
1 5.15936 -10.8673 5.36661 
2 7.00361 -9.00187 5.41928 
2 5.1998 -8.94748 3.47296 
1 8.95388 -10.6926 5.2985 
2 8.73924 -8.79527 3.45915 
2 10.6016 -8.87578 5.12944 
1 -12.4111 -5.35712 3.58504 
1 -10.7101 -7.23683 3.61384 
1 -10.6596 -5.68866 5.33048 
1 -8.84151 -7.28156 5.45459 
1 -8.85448 -5.62759 3.56806 
1 -7.07626 -7.18937 3.54491 
1 -7.17777 -5.5792 5.30833 
1 -5.29647 -7.1451 5.44878 
2 -5.30057 -5.42661 3.64632 
1 -1.68246 -7.04081 5.39688 
1 -3.48514 -7.19809 3.57278 
1 -3.51291 -5.33068 5.38673 
2 -1.76198 -5.26697 3.54802 
2 0.226815 -5.37229 5.40594 
1 -0.0575659 -7.09105 3.51451 
1 1.7876 -7.22096 5.37118 
1 3.40643 -7.138 3.62475 
1 3.50107 -5.33958 5.23289 
1 1.83641 -5.19898 3.58607 
1 6.92886 -7.13064 3.5587 
1 5.21511 -7.15744 5.42744 
2 6.99066 -5.37879 5.2873 
2 5.17362 -5.28143 3.37346 
1 10.5215 -7.11023 3.44245 
1 10.6814 -5.36191 5.4425 
1 8.79707 -7.22692 5.41259 
1 8.86561 -5.37135 3.62615 
2 12.4102 -5.38953 3.65951 
1 -14.1088 -3.63517 3.34839 
1 -12.4364 -3.49462 5.29069 
1 -14.3478 -0.0125515 3.59967 
1 -12.6349 -0.0253729 5.3879 
1 -12.3998 -1.77118 3.60315 
1 -10.6423 -1.79187 5.39682 
1 -10.6551 -3.65122 3.53983 
1 -8.97608 -3.68472 5.37351 
2 -8.98332 -1.759 3.629 
1 -7.25363 -1.70453 5.51796 
2 -7.13543 -3.6409 3.66541 
1 -5.29387 -3.47698 5.43691 
1 -5.55318 -1.75309 3.62754 
1 -7.20125 0.033264 3.79672 
2 -3.64597 -1.65359 5.3215 
2 -1.82546 -3.55458 5.45802 
1 -3.65984 -3.52816 3.58009 
1 -1.71854 -1.69506 3.60786 
1 -1.75217 -0.0144499 5.38728 
1 -0.10908 0.07005 3.67794 
1 -0.00363122 -1.69575 5.33549 
1 0.0899219 -3.49056 3.61972 
1 1.7655 -3.40488 5.39909 
1 3.63779 -1.67735 5.41867 
1 3.46709 -3.38287 3.67842 
1 1.86421 -1.78813 3.62357 
1 3.69541 -0.0347102 3.59057 
1 7.17576 -1.7079 5.33148 
1 7.08866 -3.48235 3.56043 
1 5.38958 -3.48528 5.33585 
1 5.28849 -1.77769 3.5869 
1 5.3904 0.0515852 5.42127 
2 7.10748 0.219392 3.64983 
2 10.7391 -1.73574 5.4528 
1 10.7544 -3.60372 3.51712 
2 9.01066 -3.53786 5.3669 
1 8.92001 -1.79362 3.61393 
1 8.91357 0.0824058 5.45631 
2 12.5151 -1.76302 3.50018 
1 12.4557 -3.67838 5.41717 
1 14.1958 -3.6555 3.62875 
1 14.3127 -1.74653 5.15565 
1 -1.55478 -12.4713 7.14793 
1 -8.73642 -9.13843 7.17047 
1 -5.11775 -9.35717 10.7667 
1 -5.09512 -10.8014 8.69608 
1 -6.84341 -10.7483 6.97847 
2 -6.94288 -9.04591 8.90651 
1 -5.18901 -9.01706 7.16004 
2 -1.90536 -8.78763 10.7545 
1 -1.94729 -10.7075 9.11059 
1 -3.20634 -10.644 7.14901 
1 -3.52012 -8.81966 8.80645 
1 -1.69734 -8.88034 7.30617 
1 0.12879 -8.95196 9.12761 
1 -0.0424027 -10.6963 7.28735 
1 1.59708 -12.4447 7.04484 
1 1.6652 -10.8016 8.88151 
1 3.54798 -10.8984 7.25332 
1 3.44446 -8.91385 8.89756 
1 1.73608 -8.93747 7.21529 
1 1.83334 -8.76293 10.8784 
1 7.07087 -10.7613 6.9822 
1 5.29127 -8.78363 10.5721 
1 5.2664 -10.5336 8.74364 
1 7.13448 -8.93104 8.83922 
1 5.23432 -8.9585 7.0482 
1 9.05156 -8.93692 7.24132 
1 -10.2544 -5.54709 9.16128 
2 -10.4054 -7.2246 7.19916 
1 -8.69271 -7.28091 9.08311 
1 -8.81708 -5.55819 7.10835 
1 -8.24614 -5.42933 10.7658 
1 -6.77471 -7.38045 10.7837 
1 -7.00092 -5.52909 8.74464 
1 -5.30744 -7.1659 8.87343 
1 -7.00777 -7.27608 7.10944 
1 -5.30088 -5.37685 6.99688 
1 -5.5267 -5.29363 10.9335 
2 -3.82554 -7.20363 10.8703 
1 -2.00585 -5.2627 10.7909 
1 -1.71678 -7.15515 8.97556 
2 -3.55235 -5.45403 8.8582 
1 -3.41235 -7.02819 6.98776 
1 -1.70679 -5.31456 7.15149 
2 -0.134523 -5.38091 8.9897 
1 -0.0608455 -7.16749 10.7568 
1 0.0227197 -7.18056 7.22496 
1 3.70616 -7.05081 10.8037 
1 1.76628 -5.21159 10.6414 
1 1.84506 -7.13479 9.11468 
1 3.65189 -5.43142 8.99827 
1 3.59678 -7.25173 7.19031 
2 1.85954 -5.45921 7.25907 
1 7.153 -7.10773 10.6083 
1 5.44159 -5.34671 10.6017 
1 5.30988 -7.15138 8.8632 
1 7.11174 -5.3532 8.87509 
1 7.11285 -7.25068 7.12454 
2 5.28679 -5.29299 7.11727 
1 8.77761 -5.27499 10.5678 
1 10.4907 -5.0876 8.92065 
1 10.6072 -7.0398 7.09719 
1 9.05152 -7.13281 8.90755 
1 8.71848 -5.36492 7.13709 
2 -11.9144 -1.94552 7.40538 
1 -9.04325 -1.78026 10.4356 
1 -10.9578 -3.04678 9.48187 
2 -10.7136 -4.01324 7.0746 
1 -8.71021 -3.77981 8.91381 
2 -9.18149 -1.83727 7.36475 
1 -11.0212 -0.637391 9.44472 
1 -7.03326 -3.31243 10.6631 
1 -5.43765 -1.57953 10.6119 
1 -7.2325 -1.71712 8.88012 
2 -5.40576 -3.54046 8.93173 
1 -7.24056 -3.64787 6.96552 
1 -5.44305 -1.68484 7.23625 
1 -5.4127 0.019752 8.88495 
1 -1.82409 0.0263442 9.15422 
1 -3.82094 -3.56568 10.7462 
1 -2.00427 -1.81716 10.7522 
1 -3.68195 -1.64695 9.03823 
2 -1.8423 -3.38878 8.90091 
1 -3.71615 -3.46489 7.34002 
1 -1.91733 -1.7162 7.24268 
1 0.000343078 -0.0411578 10.8018 
1 -0.010091 -1.75974 9.10747 
1 -3.77058 0.0251596 10.7692 
2 0.0907272 -3.47738 7.20761 
1 -0.0109013 -3.48291 10.706 
1 3.56061 -0.0782013 10.8477 
1 1.77188 -1.65981 7.21828 
2 3.5694 -3.47045 7.0822 
1 1.72329 -1.80195 10.6922 
1 1.87583 -3.55984 8.8867 
1 3.50827 -1.57582 8.97607 
1 3.48945 -3.54144 10.5916 
1 1.751 -0.00649136 9.01487 
1 3.47235 0.061351 7.18868 
2 -0.0294967 -0.0324222 7.23999 
1 7.13063 -0.217809 10.7584 
1 7.00487 -3.46525 7.06531 
1 5.45197 -3.58673 8.93519 
1 5.44946 -1.69848 7.03008 
1 7.0797 -1.79143 8.98219 
1 7.02319 -3.50571 10.8356 
1 5.24673 -1.76289 10.632 
1 5.38473 -0.0932174 8.93507 
1 7.24068 0.0636712 7.25112 
1 8.71871 -3.47973 8.7971 
2 10.8269 -1.8965 9.08842 
1 8.92433 -1.72064 7.14818 
1 8.94461 -1.82253 10.8656 
1 10.7522 -3.57557 7.24683 
1 12.4706 0.0418245 8.82093 
2 8.97039 -0.150264 9.10636 
2 10.6919 0.17677 7.22635 
2 12.6306 -1.82 7.11661 
1 -0.00909932 -8.60003 12.7314 
1 -1.98937 -6.88748 12.5365 
1 -3.8261 -5.29764 12.6453 
1 -0.128654 -5.21584 12.229 
1 3.66719 -5.2645 12.5555 
2 1.69868 -6.83797 12.5007 
1 1.95177 -5.03511 14.2295 
1 -0.24946 -6.37177 14.1935 
1 -5.51195 -3.40392 12.4968 
1 -7.27432 -1.54447 12.383 
1 -5.49928 -0.0445623 12.5482 
1 -0.0677488 0.0792521 14.1885 
1 -1.78122 0.08204 12.4254 
1 -0.0540738 -1.6929 12.5181 
2 -0.136091 -3.67602 13.998 
1 -2.11095 -3.61408 12.5797 
1 -1.75089 -1.67469 14.1934 
1 -3.66091 -1.74459 12.4654 
1 3.47425 -0.0875998 14.125 
1 3.40755 -1.85913 12.5531 
1 1.76998 -3.55142 12.2913 
1 1.5983 -1.75844 14.1916 
1 1.75949 -0.0752427 12.3867 
1 5.3212 -0.287797 12.552 
2 5.16352 -3.40355 12.3133 
1 7.17702 -1.77875 12.5547 
1 -7.40705 1.57222 -12.2756 
1 -5.76244 3.56936 -12.6286 
2 -1.82393 1.94066 -14.1542 
2 -3.66871 1.98495 -12.5415 
1 -1.73927 3.75592 -12.5692 
2 -0.00384263 1.81644 -12.3643 
1 0.0538658 3.67889 -14.2386 
1 3.54619 3.53589 -14.2864 
1 3.53735 1.8144 -12.4716 
2 1.70496 3.62099 -12.4608 
1 1.77029 1.77267 -14.3953 
2 1.75573 0.00363541 -12.3059 
1 4.96545 1.62892 -14.4777 
1 6.89725 1.8519 -12.7585 
1 5.23653 3.47604 -12.5542 
2 5.13019 0.0263274 -12.4888 
1 -1.99456 7.19805 -12.392 
1 -3.56095 5.25224 -12.7324 
1 -0.0451336 5.42417 -12.5477 
1 1.7751 7.1291 -12.3322 
1 3.45521 5.38523 -12.7352 
1 -12.3587 1.94324 -7.34936 
1 -11.1928 3.05249 -9.32082 
1 -9.18564 1.8383 -10.5603 
2 -8.8963 3.876 -8.92693 
2 -9.27115 2.05769 -7.29771 
1 -11.0526 4.01404 -7.11196 
1 -11.1609 0.818657 -9.26049 
1 -8.84364 -0.133998 -8.74744 
1 -7.26559 3.79294 -10.7688 
2 -5.48027 1.83063 -10.7842 
2 -7.24863 1.88352 -8.82952 
1 -5.41335 3.70128 -8.92902 
1 -7.21897 3.70213 -7.15495 
2 -5.47271 1.92254 -7.09846 
1 -7.23465 0.0304312 -10.4688 
1 -3.69389 3.6801 -10.8307 
1 -1.89352 1.88425 -10.6666 
1 -3.52729 1.91543 -8.88821 
2 -1.79856 3.68602 -8.95457 
2 -3.6187 3.59001 -6.97842 
1 -1.86004 1.76757 -7.03524 
1 -0.0645145 3.66297 -7.05981 
1 -0.118685 1.68881 -8.83733 
1 -0.0829983 3.79309 -10.805 
1 -1.94711 -0.031423 -8.903 
1 -0.179313 -0.0935353 -7.05192 
1 3.4623 3.69343 -10.7062 
1 1.69372 1.87097 -10.5373 
1 3.58313 1.87452 -8.85854 
2 1.71057 3.66897 -8.90911 
1 3.50019 3.59853 -7.13623 
2 1.6238 1.75445 -7.04533 
1 3.43522 -0.00388974 -10.5581 
2 1.63892 -0.0925934 -8.8088 
2 7.05067 3.59143 -10.7475 
1 5.27412 1.82589 -10.743 
1 7.29539 1.92745 -8.94436 
1 5.38015 3.54282 -9.11177 
1 7.01894 3.60118 -7.24544 
1 5.25934 1.90657 -7.24732 
2 5.35741 0.0338105 -9.06506 
2 7.10361 0.106099 -7.13627 
2 7.24792 0.0775969 -10.8996 
1 8.80335 1.95621 -11.091 
2 10.6846 2.01321 -9.11309 
1 8.8881 3.59143 -9.05493 
1 8.95278 1.74008 -7.25696 
1 10.8312 3.6857 -7.22352 
1 8.89138 0.00906006 -9.10664 
2 12.5567 1.84648 -7.03122 
2 10.7746 0.0311482 -7.34494 
1 10.3802 0.121428 -10.8473 
1 -10.6857 5.65228 -8.93794 
1 -10.6859 7.31468 -7.04683 
1 -8.93388 7.29905 -8.98849 
1 -9.01075 5.39948 -7.09638 
1 -9.01911 5.5116 -10.7742 
2 -5.48265 5.45559 -10.8768 
1 -7.18357 7.28783 -10.6848 
1 -7.1465 5.49328 -8.9232 
1 -5.52781 7.29532 -8.80736 
2 -7.32451 7.16467 -7.08828 
1 -5.41394 5.4985 -7.09302 
2 -3.71244 7.14849 -10.6916 
1 -1.84238 5.48615 -10.6881 
1 -1.9259 7.28107 -8.8141 
2 -3.64317 5.37765 -8.88518 
1 -3.67885 7.23583 -6.97802 
1 -1.89879 5.3582 -7.09857 
1 -0.124035 7.26259 -7.02997 
1 -0.0678505 7.31901 -10.766 
2 -0.0640383 5.57274 -8.84821 
1 3.52699 7.27662 -10.7192 
1 1.70619 5.60165 -10.6388 
2 1.78006 7.34642 -8.82005 
1 3.53731 5.38379 -8.89703 
1 3.57465 7.16203 -7.03464 
1 1.72763 5.48227 -7.02149 
1 7.00655 6.94123 -10.6114 
1 5.14519 5.45938 -10.8542 
1 7.0684 5.30917 -8.91973 
1 5.20185 7.04151 -8.90925 
1 7.09376 6.91829 -7.17262 
1 5.22204 5.27655 -7.17132 
1 8.88912 5.27636 -10.7745 
1 10.6284 5.26089 -8.96939 
1 8.85808 7.04285 -8.93274 
1 8.88117 5.12004 -7.18538 
2 10.6461 6.85124 -6.95952 
1 -8.81892 9.11452 -7.11645 
1 -5.41439 8.99418 -10.602 
1 -5.42618 10.6762 -8.70204 
1 -7.16832 9.05786 -8.89964 
1 -5.48786 8.88628 -6.97341 
1 -7.09203 10.8065 -7.07532 
2 -1.91378 9.06962 -10.636 
2 -1.85332 10.8196 -8.79572 
1 -3.57934 10.8068 -7.09635 
1 -3.77467 8.94002 -8.76092 
1 -1.78373 8.9849 -7.18927 
1 -0.0880159 9.07419 -8.94274 
1 -0.0836851 10.8606 -7.10385 
1 -0.0788801 12.5897 -8.81112 
1 -1.78198 12.568 -7.02686 
1 1.75814 9.06335 -10.6983 
1 1.66947 10.7605 -8.84343 
1 3.68789 10.8326 -7.206 
1 3.51805 8.91985 -8.86942 
1 1.67524 9.21166 -7.07595 
2 1.805 12.3683 -6.96526 
1 5.2961 8.85041 -10.5391 
1 5.41411 10.5562 -8.836 
1 7.23848 10.5751 -7.26138 
1 7.08692 8.7753 -8.89604 
1 5.29967 8.87885 -7.19861 
1 8.94357 8.70518 -7.09957 
2 -14.1162 3.46143 -3.07763 
1 -14.2015 0.148339 -3.50529 
2 -12.7067 3.43853 -5.17677 
1 -12.3956 1.75602 -3.32859 
1 -12.7022 0.388742 -5.43789 
2 -10.7778 1.99705 -5.3428 
1 -10.8606 3.75641 -3.41634 
1 -9.09972 3.76845 -5.40907 
2 -9.14748 1.81193 -3.38594 
2 -8.96652 0.0674944 -5.52723 
1 -10.8441 0.0220149 -3.62823 
1 -5.41429 0.036002 -5.40765 
1 -7.35176 1.91441 -5.49552 
2 -7.29851 3.75062 -3.68455 
1 -5.51602 3.67924 -5.3565 
1 -5.43584 1.91076 -3.63406 
2 -7.22482 0.0796667 -3.60777 
1 -3.66298 1.76578 -5.27682 
1 -1.83451 3.54105 -5.29206 
1 -3.65117 3.59742 -3.61794 
1 -1.88238 1.73911 -3.65919 
1 -0.129731 1.73716 -5.43947 
1 -0.113258 3.53262 -3.60497 
1 -0.214763 -0.0468702 -3.61604 
1 -1.89112 -0.0259893 -5.30888 
1 -3.73598 0.0857431 -3.65321 
1 3.53355 1.85049 -5.27924 
2 1.7009 3.67907 -5.30468 
1 3.50548 3.59089 -3.52552 
2 1.62808 1.69832 -3.56791 
1 3.61339 0.0108499 -3.55587 
1 5.17969 0.0959065 -5.41565 
1 7.06682 1.82108 -5.43425 
1 7.10769 3.54584 -3.65085 
1 5.21151 3.56351 -5.35937 
1 5.27323 1.75132 -3.56971 
1 7.1546 0.122428 -3.57098 
1 10.7522 1.72103 -5.34851 
1 10.5658 3.57412 -3.54723 
2 8.99582 3.35316 -5.44522 
1 8.80757 1.6767 -3.60337 
1 10.5208 0.074257 -3.56723 
1 12.4441 1.66618 -3.56129 
1 8.85307 0.0374397 -5.37273 
1 12.442 3.51485 -5.23419 
2 12.5497 -0.0959309 -5.40703 
1 14.1422 3.58908 -3.27109 
1 -12.6988 5.43244 -3.37284 
1 -10.877 7.27484 -3.48874 
1 -10.9454 5.38708 -5.09396 
2 -9.09316 7.22846 -5.22201 
1 -9.07232 5.36453 -3.47705 
1 -7.16337 7.13705 -3.6501 
1 -7.13801 5.45169 -5.37415 
1 -5.44611 7.18781 -5.28484 
1 -5.40652 5.38878 -3.50948 
1 -1.87611 7.06591 -5.42064 
1 -3.5856 7.0983 -3.62565 
1 -3.66293 5.3905 -5.25679 
1 -1.89285 5.34838 -3.66068 
1 -0.112473 5.30891 -5.42266 
2 -0.0428174 7.02942 -3.70784 
1 1.69229 7.17608 -5.53307 
2 3.42611 7.11889 -3.68458 
1 3.52942 5.23308 -5.42431 
1 1.54402 5.44882 -3.54689 
1 7.1946 7.12336 -3.59336 
1 7.16274 5.20749 -5.36182 
2 5.44776 7.06969 -5.38142 
1 5.29271 5.27934 -3.65627 
1 10.6004 7.09568 -3.72856 
1 10.6899 5.18156 -5.38309 
1 8.81437 7.03637 -5.40626 
1 8.77098 5.40638 -3.47359 
2 12.3383 5.22604 -3.47159 
1 -10.8356 8.87698 -5.21298 
1 -8.81713 10.5479 -5.19421 
1 -8.83838 8.77391 -3.48537 
1 -10.9341 10.3829 -3.38548 
1 -7.18804 10.8929 -3.457 
1 -5.51664 10.915 -5.26166 
1 -7.08501 9.02437 -5.17243 
1 -5.39737 9.00818 -3.49681 
1 -5.55853 12.56 -3.40378 
1 -1.77038 10.696 -5.30641 
1 -3.4232 10.6954 -3.51654 
2 -3.75735 9.03233 -5.2662 
1 -1.8137 8.86232 -3.46165 
1 -1.91632 12.5565 -3.52513 
1 -0.137539 8.96876 -5.43641 
1 -0.190512 10.7306 -3.54688 
2 1.7425 10.8426 -5.19169 
1 3.56193 10.5934 -3.5995 
1 3.53348 9.02054 -5.47651 
1 1.6386 8.98035 -3.70437 
1 -0.222406 12.5118 -5.24751 
1 1.81129 12.5096 -3.37422 
1 7.26764 10.87 -3.68098 
2 5.42884 10.7802 -5.4753 
1 7.29679 8.84468 -5.44481 
2 5.41209 8.92849 -3.68783 
1 10.5425 8.98856 -5.24574 
1 8.92766 10.6176 -5.52009 
1 8.98173 8.97299 -3.51786 
1 -3.61556 12.5128 -5.18775 
1 -3.55634 14.3983 -3.60919 
1 -0.0510225 14.2491 -3.51141 
1 3.69547 12.532 -5.30707 
2 1.75718 14.1161 -5.14604 
1 3.72667 14.296 -3.67953 
1 5.52551 12.6887 -3.6072 
1 -14.2921 3.52027 0.0412123 
1 -14.4273 1.5847 -1.50965 
1 -14.4181 1.68419 1.88927 
2 -12.4511 3.50573 1.81533 
1 -14.3408 0.00263708 0.176224 
1 -12.4761 3.52971 -1.57907 
1 -12.5912 1.75604 0.0628384 
2 -12.4663 0.0661264 1.88599 
2 -10.6453 3.64124 -0.0548122 
1 -10.7891 1.83656 -1.6628 
1 -10.7491 1.76152 1.86488 
1 -9.01969 3.59713 -1.74792 
1 -9.02097 3.51015 1.84355 
1 -8.92319 1.88651 0.0464856 
2 -8.91157 0.123905 1.82282 
1 -10.6452 0.0861548 -0.00365519 
1 -5.41168 0.0800926 -1.89805 
1 -7.18561 3.52001 -0.00929001 
1 -7.19332 1.95708 -1.68135 
1 -7.18006 1.84775 1.73204 
1 -5.50991 3.63666 -1.80019 
1 -5.39869 3.46824 1.67922 
1 -5.39979 1.7028 -0.112579 
2 -5.42561 0.0697346 1.93261 
1 -7.21506 0.185529 -0.0484478 
2 -3.60007 3.43963 0.01045 
1 -3.65208 1.72883 -1.80652 
2 -1.80453 3.61937 -1.84943 
1 -3.58167 1.80693 1.73578 
1 -1.80483 3.56005 1.77096 
1 -1.7887 1.76193 -0.0566245 
1 -3.47102 0.0586058 -0.0311158 
1 -0.110201 1.74786 1.73087 
1 -0.0381653 0.0732045 -0.107851 
1 -1.7561 0.0322485 1.73131 
1 -0.0765815 3.51899 0.0544086 
1 -1.89971 0.131708 -1.85396 
1 -0.123043 1.85785 -1.91695 
2 3.64737 3.60861 -0.0392299 
1 3.5231 1.6972 -1.85233 
2 1.70137 3.62573 -1.77218 
1 3.76429 1.82827 1.88886 
1 1.74848 3.53041 1.80216 
2 1.70869 1.82632 0.0589592 
2 1.7572 -0.0806039 1.89591 
1 7.15111 0.0628404 -0.00949869 
1 7.18458 3.64026 0.0215108 
1 7.03186 1.8671 -1.77361 
1 7.18855 1.91626 1.77546 
1 5.39329 3.67474 -1.85285 
1 5.40723 3.66298 1.91632 
2 5.42714 1.74795 -0.00609184 
1 5.35988 0.0504366 1.88885 
1 5.35094 0.0450881 -1.8833 
1 10.7465 3.62361 0.0778847 
1 10.6866 1.77745 1.72917 
2 10.5628 1.74041 -1.75963 
1 8.81817 3.47302 -1.82426 
1 9.00016 3.58567 1.78433 
1 8.92316 1.90291 0.0352191 
1 12.2229 3.32469 -1.71888 
1 8.75409 0.146721 -1.67226 
1 12.3852 1.72499 0.138777 
1 12.7127 3.72433 1.69641 
2 8.88685 0.0240801 1.88294 
1 14.1834 3.70096 -0.290929 
2 14.2011 1.75289 -1.71997 
1 14.3576 2.01825 1.3947 
1 -12.733 5.3981 0.0603291 
1 -12.6176 7.2719 -1.4678 
1 -12.3462 7.08653 1.73335 
1 -10.6398 6.94118 0.121291 
1 -10.7687 5.4149 -1.75931 
1 -10.8398 5.31935 1.8312 
1 -8.96148 7.0791 -1.78624 
2 -8.98678 7.01506 1.7769 
1 -8.77604 5.2565 -0.0219342 
1 -7.13257 7.23862 0.10821 
1 -7.25815 5.38489 -1.85279 
2 -5.39046 7.21065 -1.74841 
1 -7.14706 5.16907 1.75453 
1 -5.46149 7.10323 1.79398 
1 -5.40901 5.30999 0.0280306 
1 -3.661 7.03825 0.0627631 
1 -1.92463 7.07296 -1.78098 
1 -1.83287 7.22942 1.86895 
1 -3.74968 5.31411 -1.82605 
1 -3.63808 5.38966 1.84123 
2 -1.7218 5.4454 0.0215991 
1 -0.16766 5.32896 -1.79965 
1 0.00556764 7.15404 -0.0942076 
1 0.0173641 5.39262 1.6801 
1 3.65544 6.99616 -0.0655401 
1 1.73695 7.08968 -1.8357 
2 1.73619 7.15501 1.68928 
1 3.55502 5.41555 -1.89619 
2 3.53643 5.23974 1.77108 
1 1.68575 5.36614 -0.0885003 
1 7.08402 7.20844 0.0870161 
1 7.10255 5.4889 -1.73835 
2 5.2947 7.09982 -1.88166 
1 7.22601 5.3828 1.80534 
1 5.36781 7.1 1.86636 
1 5.49611 5.39536 0.0795982 
1 10.8621 6.9315 -0.194746 
1 10.8097 5.32877 1.73134 
1 10.583 5.25563 -1.81257 
1 8.90321 7.17474 -1.90132 
2 9.07991 7.23541 1.7338 
1 8.94185 5.43223 -0.106516 
2 12.1139 7.34049 1.80508 
1 12.4381 7.04733 -1.91707 
1 12.5029 5.36778 -0.110997 
2 -8.96963 10.6422 -1.85987 
1 -8.87088 10.5613 1.73194 
2 -10.6891 8.72457 -1.57361 
1 -10.7609 8.79814 1.56505 
1 -8.90224 8.89502 0.0103672 
1 -7.21931 10.6772 0.0262841 
1 -5.4896 10.6992 1.81237 
1 -5.47464 10.6621 -1.77055 
1 -7.15139 8.85155 -1.83644 
1 -7.07069 8.88847 1.8089 
1 -5.34401 8.98485 0.000224517 
1 -7.20762 12.4001 1.94862 
1 -7.27142 12.4952 -1.6429 
1 -3.59514 10.7095 -0.0106185 
2 -1.75373 10.6114 1.72065 
1 -1.77183 10.7225 -1.72958 
1 -3.61992 8.89408 -1.7959 
2 -3.66801 8.92883 1.71985 
1 -1.88918 8.81611 -0.0158381 
1 0.101961 10.7335 -0.0563811 
1 -3.5927 12.4569 -1.7165 
1 0.0172049 8.94583 1.67575 
1 -0.0345577 12.4816 -1.77986 
1 -1.71732 12.392 -0.0371465 
2 -0.0252556 8.86049 -1.80233 
1 3.7393 10.6448 -0.00639315 
1 1.87354 10.5979 1.74368 
1 1.70977 10.642 -1.83156 
1 3.37301 8.91787 -1.83119 
1 3.74385 8.91128 1.82415 
1 1.8431 8.96785 -0.038066 