ITEM: TIMESTEP
1030000
ITEM: NUMBER OF ATOMS
1289
ITEM: BOX BOUNDS pp pp pp
-100 100
-100 100
-100 100
ITEM: ATOMS type x y z 
1 -1.79216 -7.17425 -12.4507 
1 -3.5039 -5.34176 -12.5181 
1 -0.170461 -5.39888 -12.7446 
1 1.41812 -7.07111 -12.5785 
1 3.20283 -5.42209 -12.6607 
1 -7.14961 -1.86076 -12.4754 
2 -5.29683 -3.56604 -12.3187 
2 -1.67897 -1.60203 -14.4334 
2 -3.71933 -1.7092 -12.7557 
1 -1.92219 -3.52203 -12.6702 
1 -3.57487 0.231589 -14.5773 
1 -0.0916868 -1.71069 -12.6046 
1 0.0549603 -3.57668 -14.4245 
2 -0.0278162 0.179488 -14.6692 
2 3.26913 -3.45792 -14.2315 
1 1.57716 -3.58469 -12.5588 
1 3.39362 -1.76991 -12.4411 
1 1.60002 -1.69072 -14.5055 
2 3.36619 0.202615 -14.4395 
2 1.75428 -0.0160521 -12.6011 
1 5.0975 -1.64602 -14.4602 
2 6.93338 -1.79703 -12.5987 
2 5.1893 -3.68516 -12.4833 
1 -1.63953 -12.5937 -7.13023 
1 1.91094 -12.6113 -6.93388 
1 -8.90925 -9.20891 -7.23182 
2 -5.15508 -10.7901 -8.7235 
1 -5.16908 -8.96216 -10.528 
1 -6.91336 -10.8703 -6.97461 
1 -6.96479 -9.06962 -8.88201 
1 -5.38516 -8.96565 -6.94791 
1 -2.02149 -10.7952 -8.96319 
1 -1.84999 -8.95284 -10.623 
1 -3.5865 -10.8663 -6.93222 
2 -3.54673 -8.81283 -8.69199 
1 -1.81782 -9.01775 -7.00506 
2 0.101376 -10.7624 -7.09221 
1 -0.194311 -8.98828 -8.95045 
1 -0.0560576 -10.7394 -10.4902 
2 1.88914 -10.7777 -8.86003 
1 1.66426 -8.99814 -10.7744 
1 3.54497 -10.854 -6.99422 
2 3.486 -8.83665 -8.742 
1 1.78755 -8.81514 -6.99366 
1 5.2139 -10.5988 -8.74717 
1 6.95984 -8.79348 -8.84451 
1 5.29338 -8.85871 -6.96016 
1 7.06785 -10.596 -7.10078 
1 5.15904 -8.97676 -10.5819 
1 8.94804 -8.6834 -7.33345 
1 -10.6879 -5.4268 -8.92965 
1 -8.81274 -5.34597 -10.6356 
1 -8.9303 -7.19956 -8.99302 
2 -8.942 -5.39977 -7.15278 
2 -10.5797 -7.18897 -7.05126 
1 -7.12938 -7.22715 -10.6489 
1 -5.33518 -5.40176 -10.6681 
1 -7.10534 -5.48095 -9.04918 
1 -5.41771 -7.1988 -8.84026 
2 -7.19462 -7.23202 -7.21301 
1 -5.37756 -5.32788 -7.16071 
2 -3.58628 -7.10962 -10.7407 
1 -1.76501 -5.31344 -10.6929 
1 -1.80097 -7.13166 -8.89644 
1 -3.5691 -5.40728 -8.86025 
1 -3.67412 -7.06188 -7.05036 
2 -1.94225 -5.22682 -7.07436 
1 -0.00847201 -7.13416 -10.7438 
2 0.00190557 -7.23119 -7.19493 
2 -0.12174 -5.24851 -8.95109 
2 3.48804 -7.08247 -10.804 
1 1.54487 -5.29208 -10.7777 
1 1.73392 -7.00533 -9.01904 
1 3.51526 -5.25654 -8.93483 
1 3.62799 -7.05733 -7.07665 
2 1.79286 -5.22892 -7.20467 
1 6.97742 -7.09485 -10.6273 
1 5.28924 -5.39354 -10.7666 
1 5.25395 -7.10331 -8.93894 
1 6.90521 -5.22878 -8.86729 
1 6.9625 -6.90743 -7.15549 
1 5.26042 -5.23627 -7.09277 
1 8.65753 -5.01753 -10.8568 
1 10.4702 -5.0364 -8.88634 
1 10.8728 -6.7193 -7.30104 
2 8.77926 -6.78524 -8.9913 
1 8.72988 -5.13965 -7.04481 
1 -12.6311 -1.8522 -6.93732 
1 -10.6225 -1.88187 -8.85973 
1 -8.81993 -1.88358 -10.5475 
1 -10.7404 -3.63055 -7.24748 
1 -8.81458 -3.66741 -8.87193 
1 -8.98175 -1.97496 -7.16075 
1 -8.96892 -0.177607 -8.74786 
1 -10.8829 -0.0613643 -7.20092 
1 -7.10817 -3.62096 -10.6589 
1 -5.37015 -1.83541 -10.7453 
1 -7.07726 -1.76437 -8.91204 
1 -5.30079 -3.67797 -8.9783 
1 -7.02055 -3.65484 -7.19178 
1 -5.2841 -1.75155 -7.21359 
1 -7.03564 -0.100448 -10.8876 
1 -3.55351 -3.59303 -10.7513 
1 -1.84898 -1.72259 -10.867 
1 -3.73087 -1.67332 -9.10061 
2 -1.90187 -3.38472 -8.97803 
1 -3.64051 -3.52193 -7.07872 
1 -1.88 -1.74538 -7.09 
1 -1.92308 -0.0837399 -9.0515 
1 -3.7894 -0.045615 -10.8639 
1 -0.113486 -1.8167 -8.95028 
1 -0.190726 0.0851352 -7.29982 
1 -0.0636384 0.0296866 -10.7079 
1 -0.0761516 -3.5228 -10.793 
1 0.03277 -3.51395 -7.09725 
1 3.40032 -3.61837 -10.9022 
1 1.55851 -1.75321 -10.7869 
1 1.76143 -3.44746 -9.04034 
2 3.50295 -1.69514 -9.10568 
1 3.60257 -3.4008 -7.20383 
1 1.60409 -1.74234 -7.2422 
1 3.47745 0.119174 -7.07783 
1 6.9338 -3.53925 -10.8116 
1 5.26403 -1.74534 -10.9243 
1 6.85008 -1.78058 -9.09056 
1 5.14884 -3.60693 -9.08694 
1 6.94025 -3.52785 -7.20969 
1 5.2148 -1.77386 -7.23364 
2 7.2001 -0.00708534 -10.824 
1 8.72576 -1.95317 -10.7036 
1 10.7072 -3.60235 -7.06938 
1 8.55733 -3.50591 -8.93149 
2 8.71968 -1.90071 -7.12097 
2 10.5369 -2.04813 -9.07032 
1 12.4126 -1.87581 -7.37488 
1 10.4574 -0.0751212 -10.659 
1 -5.28355 -12.526 -3.37257 
1 -1.77071 -14.1032 -4.9633 
1 -3.59117 -12.4848 -5.15571 
1 -1.96076 -12.3908 -3.33551 
2 0.1223 -14.2309 -3.23457 
1 0.124261 -12.5768 -5.2342 
2 1.95945 -12.518 -3.43977 
1 5.20947 -12.377 -3.45492 
1 -10.623 -8.99648 -5.21958 
1 -8.65933 -10.7555 -5.18016 
2 -8.85498 -8.95452 -3.44717 
1 -7.09543 -10.7623 -3.46398 
1 -5.35202 -10.6967 -5.16775 
1 -7.10517 -8.96133 -5.27506 
1 -5.38752 -8.88489 -3.55825 
2 -1.80248 -10.847 -5.34593 
1 -3.58674 -10.763 -3.3885 
1 -3.58302 -8.95044 -5.25103 
2 -1.81589 -8.9389 -3.46035 
1 0.112459 -8.91538 -5.26461 
1 3.57729 -12.6335 -5.1068 
2 0.051115 -10.7779 -3.47909 
1 1.92254 -10.6561 -5.37293 
1 3.63203 -10.6137 -3.53407 
1 3.53375 -8.8893 -5.31503 
1 1.85664 -8.93409 -3.48331 
2 7.13026 -10.735 -3.78291 
1 5.22403 -10.8004 -5.44122 
1 7.14941 -8.74739 -5.44754 
2 5.47909 -8.92425 -3.55487 
1 8.87999 -10.4265 -5.45065 
2 8.8657 -8.77333 -3.58313 
1 10.71 -8.60851 -5.4617 
1 -12.5804 -5.15224 -3.55072 
1 -10.8786 -7.00795 -3.59716 
1 -10.9576 -5.30143 -5.46833 
2 -8.92233 -7.21864 -5.25156 
1 -8.85979 -5.32157 -3.5679 
1 -7.1905 -7.18253 -3.57101 
1 -7.06605 -5.38878 -5.33646 
1 -5.39657 -7.16754 -5.29248 
1 -5.34961 -5.44722 -3.52161 
1 -1.83364 -7.09237 -5.33535 
1 -3.50966 -7.00717 -3.52947 
1 -3.6535 -5.32336 -5.25869 
1 -1.8518 -5.2404 -3.54946 
2 0.0124064 -5.31682 -5.25152 
1 -0.0349999 -7.12958 -3.54554 
2 1.90909 -7.09175 -5.27907 
1 3.75204 -7.08034 -3.52939 
1 3.55921 -5.11458 -5.3388 
1 1.87218 -5.34379 -3.55956 
1 7.06922 -6.98712 -3.5454 
1 5.36361 -6.96764 -5.29159 
1 6.99258 -5.07416 -5.32536 
1 5.41605 -5.20371 -3.57186 
1 10.6916 -7.06375 -3.59722 
1 10.7391 -5.38844 -5.25738 
2 8.77616 -6.9799 -5.49696 
2 8.7724 -5.22267 -3.52269 
1 12.4462 -5.2372 -3.40777 
1 -14.2466 -3.47308 -3.21897 
1 -12.7077 -3.57776 -5.43435 
2 -12.6039 -1.64593 -3.49111 
1 -10.7152 -1.84217 -5.43857 
2 -10.8237 -3.54162 -3.55952 
1 -8.936 -3.65992 -5.36277 
2 -8.93891 -1.93185 -3.54487 
2 -7.04009 -1.92122 -5.36725 
1 -7.12068 -3.66058 -3.559 
1 -5.31341 -3.56672 -5.30745 
1 -5.2945 -1.78643 -3.58669 
1 -3.63983 -1.59901 -5.37471 
1 -1.88416 -3.45482 -5.36525 
1 -3.61716 -3.4504 -3.59016 
1 -1.86256 -1.68978 -3.67006 
1 -0.109273 -1.67653 -5.51528 
1 0.0170636 -3.52901 -3.71364 
1 1.89901 -3.43621 -5.40551 
1 3.47112 -1.60083 -5.42673 
1 3.62436 -3.43639 -3.66471 
2 1.80517 -1.66326 -3.58805 
1 1.73677 0.0690337 -5.44249 
1 6.95018 -1.79248 -5.40728 
1 7.02916 -3.46833 -3.58564 
1 5.32208 -3.48855 -5.36393 
1 5.30674 -1.78046 -3.56485 
1 5.1839 0.0726602 -5.26911 
1 10.5647 -1.85922 -5.3281 
1 10.5793 -3.57006 -3.44938 
1 8.92637 -3.47596 -5.26472 
1 8.83878 -1.70884 -3.41932 
1 12.1327 -1.76863 -3.39989 
2 12.3576 -3.46568 -5.31876 
2 14.068 -3.16202 -3.20883 
2 14.0968 -0.420615 -3.58025 
1 -3.54261 -14.1385 0.221719 
1 -1.8136 -14.3849 -1.60637 
1 -1.25226 -14.4988 0.931426 
1 -3.68052 -12.4669 -1.56004 
1 0.683632 -14.8893 -0.769563 
1 2.72039 -14.6784 -2.38805 
1 3.35671 -14.3052 -0.0819301 
2 1.40778 -14.2391 1.62633 
2 1.85596 -12.3062 -0.0399922 
1 5.23212 -14.0932 -1.74643 
1 -10.7627 -10.5212 -0.00105261 
1 -10.6268 -8.87108 -1.70278 
1 -8.98745 -10.7111 -1.74377 
2 -8.82127 -10.7382 1.76578 
1 -8.86039 -8.87902 0.00514502 
2 -10.7739 -8.76015 1.67908 
1 -5.33325 -12.5752 0.0797619 
2 -7.21901 -12.608 1.56346 
2 -7.07082 -12.3214 -1.51537 
1 -7.14628 -10.5508 -0.0400887 
2 -5.31145 -10.5164 -1.67864 
2 -5.48613 -10.7625 1.83696 
1 -7.14518 -8.69455 -1.69631 
1 -7.18679 -8.77204 1.76527 
1 -5.20407 -8.75555 0.0430135 
1 -1.86187 -12.3028 -0.0110251 
1 -3.51379 -12.212 1.76336 
1 -3.60275 -10.6274 -0.0181448 
1 -1.85367 -10.6971 -1.66079 
1 -1.73853 -10.4597 1.73528 
1 -3.54828 -8.7136 -1.80395 
1 -3.48433 -8.73953 1.79561 
1 -1.81671 -8.77812 -0.0707194 
1 0.110827 -8.95265 -1.71211 
1 -0.0992734 -12.255 1.65732 
1 -0.0180657 -10.5365 -0.0246534 
1 0.0470947 -8.78069 1.68382 
2 0.0128064 -12.521 -1.56948 
1 3.5934 -12.5285 1.73452 
1 3.54357 -12.4662 -1.77915 
1 3.66907 -10.6125 0.0822527 
1 1.89484 -10.6122 -1.83721 
1 1.94023 -10.6137 1.70212 
1 3.69248 -8.72547 -1.6571 
1 3.55217 -8.89625 1.72019 
1 1.86316 -8.8071 -0.0452089 
1 5.25143 -12.5516 0.135121 
2 7.19254 -12.3613 -1.76593 
1 6.99686 -12.5313 1.90233 
1 6.88592 -10.6968 0.0427402 
1 5.33549 -10.6728 -1.76454 
1 5.3145 -10.802 1.81175 
1 7.15287 -8.90886 -1.84904 
2 7.06326 -8.93415 1.77098 
1 5.33184 -8.79233 0.0594258 
1 9.01637 -10.5806 -1.94727 
1 8.7823 -12.2348 0.031926 
1 10.6725 -8.81364 -1.84492 
1 10.6581 -9.09414 1.89838 
2 8.85395 -9.19056 -0.0559555 
1 8.75776 -10.8198 2.04795 
1 -12.6717 -5.17106 -0.170533 
1 -12.5094 -7.00694 -1.975 
2 -10.7795 -7.0259 -0.0658191 
1 -10.758 -5.29334 -1.86129 
1 -10.8524 -5.35646 1.68003 
1 -8.9159 -7.07694 -1.68819 
1 -8.98627 -7.01551 1.70347 
1 -8.9902 -5.36915 -0.0209606 
1 -7.10696 -7.12611 0.113696 
1 -7.16692 -5.42898 -1.78758 
1 -5.35365 -7.13527 -1.88835 
2 -7.16621 -5.43742 1.71832 
1 -5.2511 -7.11484 1.79589 
1 -5.33379 -5.42355 -0.114195 
1 -3.60525 -7.06652 -0.0234321 
1 -1.74092 -7.03026 -1.7108 
1 -1.75269 -7.14273 1.61245 
1 -3.499 -5.32385 -1.83737 
1 -3.57928 -5.3301 1.69672 
2 -1.73447 -5.24348 0.0621286 
1 0.052243 -7.04769 0.0165017 
1 -0.0771083 -5.37801 -1.85444 
1 0.0750127 -5.17119 1.78998 
1 3.56919 -6.93603 0.0410975 
2 1.80962 -7.11875 -1.78835 
1 1.90129 -6.94 1.75748 
2 3.64173 -5.27586 -1.87928 
1 3.54411 -5.20425 1.94632 
1 1.6475 -5.23509 0.0718314 
1 7.14815 -7.06981 0.00976651 
1 5.56493 -7.04388 -1.74533 
1 7.17486 -5.29888 -1.71626 
1 5.29919 -7.03815 1.82458 
2 7.21181 -5.37979 1.81938 
1 5.30082 -5.29103 -0.0326596 
1 10.5089 -7.2067 -0.0470967 
1 10.6204 -5.37706 1.75178 
1 10.495 -5.37639 -1.83372 
1 8.90707 -7.11356 -1.79501 
1 8.90873 -7.28123 1.74416 
1 8.89425 -5.30139 -0.061788 
2 12.2675 -5.32033 -0.0684551 
1 12.2887 -7.15088 1.67915 
1 12.3238 -7.05509 -1.63803 
1 -14.2705 -3.21137 -0.106312 
2 -14.2518 -1.31718 -1.72835 
1 -14.2378 -1.83015 1.93931 
1 -12.5022 -3.43047 -1.7527 
1 -12.3743 -1.76726 -0.0668464 
1 -12.475 -3.55719 1.73349 
1 -10.679 -3.63867 -0.0492741 
1 -10.6645 -1.73881 -1.69465 
1 -10.8087 -1.86251 1.68852 
1 -8.88673 -3.63388 -1.75224 
2 -8.94551 -3.57686 1.81407 
1 -8.90081 -1.79947 0.00815418 
1 -8.92022 0.0282161 -1.82021 
2 -12.2515 -0.11905 1.98447 
1 -7.09135 -0.0830698 0.0687479 
1 -7.13088 -3.5128 -0.0420873 
1 -7.13738 -1.82026 -1.80971 
1 -7.16936 -1.81641 1.82044 
1 -5.38565 -3.56412 -1.81183 
2 -5.32447 -3.51489 1.75099 
2 -5.26728 -1.70583 -0.144634 
2 -5.41378 0.0390291 1.85199 
1 -3.56912 -3.54332 -0.0873681 
1 -3.61191 -1.66877 -1.84976 
2 -1.81608 -3.28251 -1.77271 
2 -3.51951 -1.68573 1.77532 
1 -1.84731 -3.47222 1.83081 
1 -1.75137 -1.638 0.0640038 
1 -0.0906031 -1.66154 -1.9333 
1 -0.0494811 -1.73588 1.81392 
1 -3.5291 0.060092 -0.181488 
1 -0.0199325 -3.45865 0.0648272 
2 3.4301 -3.5683 -0.000778493 
2 1.62476 -3.59288 -1.75245 
1 3.60529 -1.72407 -1.79814 
1 1.71358 -3.35988 1.84264 
1 3.48031 -1.82894 1.88662 
1 1.73932 -1.70911 -0.037535 
2 3.51482 0.00196443 0.0630577 
2 1.72641 0.0238029 1.84743 
1 7.07021 -3.59803 -0.0345859 
1 7.07321 -1.6201 -1.8531 
1 7.15784 -1.89522 1.93069 
1 5.45343 -3.52107 -1.78496 
1 5.31093 -3.43836 1.78928 
2 5.42486 -1.74801 -0.00576883 
1 10.5316 -3.58821 -0.0148185 
1 10.6775 -1.74285 1.886 
1 10.4397 -1.68782 -1.6769 
1 8.8191 -3.50368 -1.7804 
1 9.01567 -3.60747 1.95515 
2 8.7487 -1.76543 -0.0110464 
1 12.2435 -3.39214 -1.64896 
1 12.31 -1.80331 0.18442 
2 12.4381 -3.64073 1.79466 
1 12.3773 0.106831 1.70286 
2 14.0643 -3.56078 -0.154652 
1 14.8306 -1.52995 -1.40262 
1 14.2698 -1.61266 1.61177 
2 -2.8215 -14.1291 2.81532 
1 -0.253416 -14.2495 3.47716 
1 3.39389 -14.1488 3.49132 
1 1.72641 -12.5117 3.62061 
1 -10.6741 -10.5811 3.46817 
1 -10.6676 -8.54475 5.44644 
2 -8.79909 -8.69317 3.46333 
2 -8.96116 -10.5487 5.2158 
2 -5.23042 -12.6748 3.46272 
1 -7.23461 -10.873 3.75688 
1 -5.29096 -10.9521 5.40982 
1 -7.21352 -8.80021 5.41598 
2 -5.38749 -8.90472 3.65321 
2 -3.1027 -12.5576 5.23975 
2 -0.0302432 -12.4613 5.23376 
1 -1.5562 -12.194 3.41876 
1 -1.68523 -10.587 5.40955 
1 -3.49804 -10.8267 3.57612 
2 -3.39642 -9.01474 5.31394 
1 -1.71463 -8.68544 3.40061 
1 0.0598401 -8.8439 5.30832 
1 3.36151 -12.6942 5.50101 
1 0.0569714 -10.5283 3.3843 
1 1.6919 -10.6479 5.26006 
2 3.48478 -10.7432 3.59765 
1 3.39923 -8.89632 5.38256 
1 1.73354 -8.74272 3.48919 
1 5.18431 -12.5999 3.75831 
1 7.03511 -10.9078 3.95476 
1 5.20416 -10.8561 5.45696 
2 7.0929 -8.89796 5.48009 
2 5.2463 -8.90183 3.65547 
1 9.11294 -10.8007 5.33744 
2 8.85001 -8.85139 3.72984 
2 10.661 -8.61182 5.41158 
1 -12.5263 -5.41756 3.49175 
1 -10.812 -7.18734 3.60172 
1 -10.7535 -5.3513 5.21642 
1 -8.92082 -6.89764 5.39875 
1 -8.94964 -5.33981 3.57248 
1 -7.05225 -7.07902 3.73763 
1 -7.14958 -5.33901 5.37114 
1 -5.3717 -7.13667 5.40377 
2 -5.26264 -5.28762 3.58779 
1 -1.79115 -7.0527 5.35913 
1 -3.6268 -7.11453 3.60286 
1 -3.59615 -5.32897 5.42455 
2 -1.81562 -5.3895 3.43666 
2 -0.0790705 -5.34345 5.46109 
1 0.103033 -7.01899 3.53575 
1 1.71377 -7.10005 5.29307 
1 3.40237 -7.06744 3.5249 
1 3.4722 -5.25965 5.32571 
1 1.69469 -5.30174 3.58334 
1 7.04 -7.12028 3.59085 
1 5.15757 -7.06602 5.39415 
2 7.13308 -5.32299 5.32031 
2 5.27726 -5.24344 3.5948 
1 10.8192 -7.28643 3.49947 
1 10.9054 -5.42382 5.46153 
1 8.7931 -6.94947 5.39743 
1 9.12601 -5.50472 3.6221 
2 12.3752 -5.48994 3.62348 
1 -13.9794 -3.49352 3.67799 
1 -14.1526 0.0155194 3.60465 
1 -12.4351 -0.0927232 5.49032 
1 -12.4013 -3.47702 5.47089 
1 -12.443 -1.74632 3.69218 
1 -10.5694 -1.75168 5.51788 
1 -10.8052 -3.56689 3.51958 
1 -9.06285 -3.62876 5.51009 
2 -9.04059 -1.83291 3.72472 
1 -7.1368 -1.85462 5.53053 
2 -7.14593 -3.44835 3.72859 
1 -5.29754 -3.53127 5.40915 
1 -5.42898 -1.72017 3.74186 
1 -5.32999 0.0688209 5.52296 
1 -7.12083 0.0105376 3.79812 
2 -3.5946 -1.69289 5.41594 
2 -1.88977 -3.48974 5.25557 
1 -3.53482 -3.43352 3.53579 
1 -1.69928 -1.50899 3.44886 
1 -1.70856 0.139747 5.36559 
1 -0.0373671 -1.79747 5.33706 
1 0.0503352 0.0793541 3.72096 
1 0.0257607 -3.40921 3.55268 
1 1.79293 -3.49096 5.19447 
1 3.65346 -1.64083 5.27595 
1 3.54823 -3.38382 3.68806 
1 1.71053 -1.62823 3.65809 
1 3.68103 0.00373258 3.6126 
1 1.77652 0.0279578 5.41818 
1 7.18054 -1.91515 5.4187 
1 7.22809 -3.58884 3.5116 
1 5.29783 -3.38899 5.38293 
1 5.36939 -1.87074 3.58111 
2 7.04635 -0.0420769 3.65578 
2 10.7327 -1.76752 5.35902 
1 10.6556 -3.58156 3.60229 
2 8.99876 -3.62919 5.45617 
1 9.00572 -1.728 3.58496 
1 8.85977 0.16664 5.33908 
2 14.1166 0.0169343 3.53749 
2 12.4409 -1.7027 3.6039 
1 12.5635 -3.6106 5.38928 
1 14.2879 -3.36479 3.56289 
1 14.3535 -1.69176 5.47443 
1 12.5241 0.157227 5.56653 
1 -8.78962 -8.78202 6.99719 
1 -5.41171 -9.31288 10.5218 
1 -5.20638 -10.8162 8.68332 
1 -7.23059 -10.9016 6.97736 
2 -6.85384 -8.90018 8.59618 
1 -5.22172 -9.0639 6.96432 
1 -1.35137 -12.411 7.2137 
2 -1.62753 -8.90434 10.7382 
1 -1.80311 -10.6613 8.95096 
1 -3.42709 -10.8891 7.16219 
1 -3.59145 -9.01692 8.88116 
1 -1.7914 -8.96176 7.12016 
1 0.0689715 -10.4966 7.04152 
1 0.00662243 -8.84866 8.88458 
1 1.63192 -12.4667 7.19494 
1 1.61224 -10.7494 8.89305 
1 3.34865 -10.7094 7.06647 
1 3.45501 -8.94301 8.75706 
1 1.79536 -8.80925 7.17789 
1 1.82626 -9.02431 10.6683 
1 7.05758 -10.8384 6.96787 
1 5.15786 -8.98813 10.6003 
1 5.14611 -10.6638 8.75933 
1 6.92681 -9.06748 8.74999 
1 5.18668 -8.84806 7.02897 
1 8.92441 -8.90279 7.16957 
1 -10.4336 -5.41256 9.31575 
2 -10.5977 -6.85647 7.22443 
1 -8.83932 -7.20838 8.69432 
1 -8.63708 -5.34699 7.12515 
1 -8.60078 -5.59772 10.803 
1 -6.96339 -7.35299 10.6129 
1 -7.19117 -5.57431 8.97445 
1 -5.23998 -7.219 8.86435 
1 -7.06651 -7.03398 7.04187 
1 -5.34682 -5.43287 7.24015 
1 -5.48287 -5.29488 10.6269 
2 -3.69549 -7.22129 10.7877 
1 -1.87771 -5.37189 10.758 
1 -1.74214 -7.20923 9.03739 
2 -3.57615 -5.33951 9.00974 
1 -3.50951 -7.22237 7.13952 
1 -1.88601 -5.2796 7.27028 
1 -0.129781 -7.24791 7.18427 
1 -0.0510778 -7.17983 10.792 
2 -0.0854642 -5.38016 8.98725 
1 3.56002 -7.22884 10.5335 
1 1.83823 -5.37878 10.6996 
1 1.76231 -7.06262 8.97098 
1 3.57896 -5.31294 8.96032 
1 3.46169 -7.12909 7.1015 
2 1.87065 -5.41232 7.03664 
1 6.87724 -7.28945 10.6265 
1 5.33655 -5.43256 10.6559 
1 5.24494 -7.22027 8.77183 
1 7.10507 -5.42291 8.86542 
1 6.95513 -7.198 7.23134 
2 5.28567 -5.2736 7.09011 
1 8.73914 -5.33271 10.5504 
1 10.6323 -5.32191 8.98717 
1 10.6347 -7.05939 7.24003 
1 8.72924 -7.19518 8.92324 
1 8.98024 -5.41315 7.32973 
2 -11.9948 -1.70514 7.37101 
1 -9.0449 -1.76655 10.5676 
1 -11.0302 -3.00755 9.60971 
2 -10.7285 -3.99169 7.30593 
1 -8.62117 -3.77411 9.1092 
2 -9.01082 -1.94233 7.36935 
1 -11.1665 -0.518001 9.21364 
1 -7.27442 -3.48597 10.9691 
1 -5.39394 -1.67641 10.7246 
1 -7.1522 -1.78251 9.09487 
2 -5.40586 -3.60291 8.97564 
1 -7.09496 -3.5718 7.19087 
1 -5.40883 -1.66108 7.37048 
1 -7.14778 -0.0532709 10.8361 
1 -5.29767 0.0657424 8.98238 
1 -1.81144 0.13248 9.07927 
1 -3.6718 -3.42423 10.7545 
1 -1.89843 -1.69417 10.7332 
1 -3.57334 -1.5987 9.0776 
2 -1.86597 -3.33273 8.89848 
1 -3.72425 -3.47407 7.23172 
1 -1.74344 -1.67715 7.21675 
2 -0.00951169 0.0130041 7.20695 
2 -3.41503 0.0739098 7.24341 
1 0.116379 -1.82681 9.03739 
2 0.15308 -3.38867 7.16249 
1 -0.111182 -3.51724 10.8646 
1 1.87453 -1.64183 7.16222 
2 3.5293 -3.4747 7.11023 
1 1.71863 -1.7767 10.7741 
1 1.82731 -3.59454 9.15605 
1 3.61534 -1.75416 8.92738 
1 3.60857 -3.57105 10.6762 
1 -0.071278 -0.0170507 10.7594 
1 3.53987 0.00222516 7.03956 
1 7.2453 -1.70169 9.03962 
1 7.13515 -3.65229 10.7548 
1 5.33637 -1.76034 10.6576 
1 5.37065 -1.78628 7.33031 
1 5.39349 -3.6033 9.03733 
1 7.14488 -3.62224 7.19227 
1 7.20423 -0.139376 7.10691 
2 10.6925 -2.0216 8.98097 
1 8.84455 -3.57133 8.84799 
1 8.96515 -1.93509 10.7569 
1 9.03917 -1.7196 7.17035 
1 10.811 -3.73049 7.14231 
2 12.5222 -1.76853 7.23521 
1 0.0685347 -8.85965 12.4763 
1 0.171641 -6.91135 14.1747 
1 -1.81719 -7.16703 12.5818 
1 -3.45963 -5.25292 12.521 
1 -0.010822 -5.41074 12.2945 
2 1.83349 -7.2651 12.3898 
1 1.94227 -5.23829 14.2422 
1 3.63586 -5.63182 12.3622 
1 -7.04553 -1.81063 12.6902 
1 -5.32729 -3.52055 12.3836 
1 -3.65678 -1.69302 12.3947 
1 -1.81422 -1.72844 14.1751 
1 -1.94693 -3.5645 12.4099 
1 -0.0556555 -0.112463 14.2804 
1 -0.0634719 -1.71579 12.4687 
2 -0.0981042 -3.86174 14.0594 
1 3.4954 -1.88644 12.6166 
1 1.86114 -3.66383 12.4645 
1 1.61695 -1.98979 14.2442 
1 1.72768 -0.183242 12.4553 
2 5.30305 -3.51588 12.4213 
1 7.09043 -1.72024 12.515 
1 -9.38946 3.1188 -11.0484 
1 -7.42591 1.86996 -12.2577 
1 -5.46728 3.69246 -12.6675 
1 -5.42929 0.0576455 -12.7961 
2 -1.95344 2.0357 -14.4849 
2 -3.74832 1.88525 -12.6352 
1 -1.93556 3.67446 -12.6259 
2 0.0313435 1.89247 -12.704 
2 -1.86087 0.155592 -12.6016 
1 -0.0428007 3.67834 -14.3297 
1 3.43291 3.71596 -14.3198 
1 3.44121 1.91145 -12.6935 
2 1.70097 3.69618 -12.5331 
1 1.75188 2.09215 -14.798 
1 5.34004 1.73667 -14.453 
1 7.12224 1.59323 -12.6327 
1 5.20662 3.57473 -12.7138 
2 5.17501 0.0684826 -12.5326 
1 -2.00007 7.16411 -12.5769 
1 -3.66056 5.44068 -12.574 
1 -0.220537 5.53405 -12.6509 
1 1.44481 7.11892 -12.3931 
1 3.3926 5.51418 -12.4246 
1 -12.4306 1.7266 -7.25221 
1 -9.30464 0.564524 -10.9382 
2 -8.97722 3.83594 -8.88072 
2 -8.77964 1.86941 -7.26492 
1 -11.0225 3.6562 -7.33295 
1 -10.5748 1.79759 -8.99863 
1 -6.99139 3.8162 -10.6696 
2 -5.45996 1.81884 -10.8198 
2 -7.45833 1.82774 -9.34233 
1 -5.47786 3.61554 -8.92512 
1 -7.05053 3.67268 -7.22756 
2 -5.40626 1.77166 -7.33467 
1 -5.41527 0.0804623 -9.01055 
1 -7.14193 -0.0824405 -7.20763 
1 -3.71953 3.63027 -10.8173 
1 -1.97574 1.87331 -10.8105 
1 -3.62405 1.79605 -9.12759 
2 -1.88013 3.58871 -8.93532 
2 -3.70498 3.61703 -7.17031 
1 -2.01139 1.7689 -7.16986 
1 -0.186339 3.50307 -10.7829 
1 -0.256972 3.57761 -7.10691 
1 -3.60332 -0.0282255 -7.29816 
1 -0.250868 1.77514 -8.93403 
1 3.52474 3.60117 -10.8681 
1 1.7292 1.8981 -10.7531 
1 3.49646 2.0143 -8.9724 
2 1.63925 3.62892 -9.00138 
1 3.54271 3.74683 -7.14741 
2 1.64472 1.80125 -7.20196 
2 1.68535 0.14911 -8.94653 
1 3.44914 0.109121 -10.7608 
2 6.99432 3.57934 -10.947 
1 5.25777 1.80435 -10.7724 
1 7.06229 1.78376 -9.05193 
1 5.26993 3.46549 -8.93985 
1 6.9718 3.54748 -7.21603 
1 5.16839 1.78693 -7.04311 
2 7.03431 -0.0392142 -7.15765 
2 5.20922 0.0866085 -9.00095 
1 9.05076 2.00612 -10.9184 
2 10.6566 1.76087 -8.97765 
1 8.66691 3.57021 -9.00921 
1 8.77906 1.93277 -7.29284 
1 10.7243 3.45737 -7.19453 
2 10.5084 -0.0777612 -7.18822 
1 8.82911 -0.106574 -8.92451 
2 12.3751 1.59777 -7.08068 
1 -10.7444 5.67559 -8.77291 
1 -10.6264 7.27433 -6.92919 
1 -8.87661 7.30303 -8.83284 
1 -8.83141 5.40994 -7.04272 
1 -8.69305 5.48551 -10.6918 
2 -5.36365 5.52919 -10.7546 
1 -7.15063 7.4682 -10.6115 
1 -7.06531 5.54686 -8.9449 
1 -5.36438 7.28563 -8.86948 
2 -7.05465 7.27215 -7.13264 
1 -5.34602 5.44409 -7.20886 
2 -3.66774 7.4016 -10.8365 
1 -1.87144 5.44392 -10.7765 
1 -1.89382 7.27592 -8.75421 
2 -3.66968 5.53702 -9.03199 
1 -3.61708 7.304 -7.06217 
1 -1.88837 5.4378 -7.13875 
1 -0.326588 7.22813 -10.7674 
2 -0.164452 5.44817 -8.96284 
1 -0.155441 7.16799 -7.10754 
1 3.46374 7.29813 -10.885 
1 1.49368 5.33842 -10.8518 
2 1.57275 7.26292 -9.12648 
1 3.49704 5.46364 -9.08213 
1 3.44571 7.23591 -7.29099 
1 1.63672 5.40173 -7.22434 
1 7.02535 7.02468 -10.6574 
1 5.26282 5.32951 -10.7821 
1 7.05679 5.1848 -9.03763 
1 5.21613 7.12465 -9.01377 
1 7.1543 7.01069 -7.36148 
1 5.26869 5.30332 -7.32022 
1 8.88019 5.20343 -10.7069 
1 10.6516 5.07362 -8.8701 
2 10.5826 6.9619 -7.08484 
1 8.83355 7.00777 -8.92997 
1 8.86732 5.35849 -7.21604 
1 -8.94645 8.97454 -7.0809 
1 -5.36843 9.14074 -10.4727 
1 -5.26174 10.8595 -8.7454 
1 -7.21521 9.10849 -8.86713 
1 -5.42454 9.07486 -7.15605 
1 -7.16587 10.7061 -7.06108 
2 -1.85626 9.09335 -10.6653 
2 -2.01155 10.7633 -8.92604 
1 -3.74671 10.8479 -6.93969 
1 -3.58089 9.00173 -8.79329 
1 -1.89432 9.08678 -7.10203 
1 -0.131858 10.7212 -7.11605 
1 -0.165711 9.02097 -8.88319 
1 -0.099789 12.2407 -8.97621 
1 1.46512 9.05094 -10.7409 
1 1.73385 10.601 -8.82187 
1 3.40945 10.8093 -7.11958 
1 3.44678 9.00236 -9.11416 
1 1.60913 8.89273 -7.10009 
2 1.64243 12.5371 -7.22907 
1 5.29861 9.03626 -10.6187 
1 5.12161 10.6553 -8.9089 
1 7.01013 10.5786 -7.18482 
1 7.13129 8.89342 -8.93172 
1 5.26146 8.9296 -7.28616 
1 8.87112 8.82025 -7.22554 
1 -1.88006 12.5055 -7.13688 
2 -13.989 3.1426 -3.34864 
1 -14.2399 0.373004 -3.74897 
1 -12.5191 0.0650176 -5.44064 
2 -12.4625 3.52258 -5.31313 
1 -12.3367 1.63783 -3.44948 
2 -10.6776 1.77514 -5.51159 
1 -10.755 3.61461 -3.41099 
1 -8.95758 3.65052 -5.45593 
2 -8.97474 1.84195 -3.55161 
2 -8.96193 -0.10367 -5.47549 
1 -10.6422 -0.117668 -3.61177 
1 -7.16476 1.91286 -5.42836 
2 -7.11541 3.60121 -3.5051 
1 -5.39521 3.55893 -5.30121 
1 -5.28993 1.77359 -3.58711 
1 -5.38174 0.0733208 -5.31626 
2 -7.13166 0.0217863 -3.5536 
1 -3.69878 1.76061 -5.45018 
1 -1.88913 3.62431 -5.41361 
1 -3.72149 3.54666 -3.52845 
1 -1.86449 1.89979 -3.59977 
1 -0.245881 1.79505 -5.4043 
1 -0.209355 3.6281 -3.63284 
1 -3.59193 0.0371973 -3.60744 
1 -0.0749065 0.0695961 -3.67578 
1 -1.88581 -0.00206057 -5.35894 
1 3.5028 1.99735 -5.39465 
2 1.55286 3.70544 -5.46512 
1 3.51905 3.65123 -3.72935 
2 1.65394 1.81718 -3.68674 
1 3.4603 0.10289 -3.5595 
1 6.95739 1.77174 -5.39655 
1 7.01112 3.45681 -3.63979 
1 5.29539 3.68716 -5.4226 
1 5.2653 1.93482 -3.52124 
1 7.06251 0.0309886 -3.73754 
1 10.4825 1.6104 -5.46802 
1 10.5055 3.33866 -3.68376 
2 8.77337 3.47464 -5.37836 
1 8.76478 1.66684 -3.68184 
1 8.73906 -0.106337 -5.35964 
2 12.3824 -0.172275 -5.42911 
1 12.2708 3.40533 -5.28913 
1 10.5876 -0.153315 -3.66569 
1 12.3919 1.60648 -3.74341 
1 14.0382 3.2211 -3.70869 
1 -12.5975 5.30991 -3.47139 
1 -10.6364 7.09543 -3.37926 
1 -10.9451 5.45379 -5.30919 
2 -8.8352 7.16642 -5.29525 
1 -9.02739 5.28087 -3.57521 
1 -7.19638 6.96847 -3.47918 
1 -7.05224 5.33547 -5.26915 
1 -5.42329 7.24821 -5.18926 
1 -5.34297 5.28995 -3.53343 
1 -1.92352 7.22142 -5.43978 
1 -3.59626 7.17329 -3.58126 
1 -3.67742 5.44772 -5.34314 
1 -2.01728 5.4344 -3.62901 
1 -0.16561 5.3766 -5.40189 
2 -0.0487419 7.20611 -3.72076 
1 1.60553 7.17793 -5.42781 
2 3.37966 7.07619 -3.71519 
1 3.32789 5.43182 -5.45787 
1 1.6161 5.34238 -3.66877 
1 7.14 7.06934 -3.57313 
1 7.04764 5.28727 -5.44838 
2 5.25304 7.07044 -5.57431 
1 5.34847 5.26507 -3.57807 
1 10.528 7.17054 -3.72683 
1 10.6234 5.23111 -5.48628 
1 8.78545 7.05541 -5.38529 
1 8.82046 5.26619 -3.64002 
2 12.3219 5.2079 -3.56452 
1 -10.674 9.10778 -5.35059 
1 -8.7491 10.6727 -5.10744 
1 -8.84906 8.91647 -3.46107 
1 -10.5377 10.5767 -3.38292 
1 -7.15285 10.8161 -3.49204 
1 -5.49096 10.758 -5.31707 
1 -7.11796 8.86645 -5.23225 
1 -5.49157 8.97026 -3.49215 
1 -1.83087 10.8441 -5.21387 
1 -3.62138 10.7584 -3.48963 
2 -3.52017 9.0293 -5.27628 
1 -1.93952 9.01095 -3.45135 
1 -0.264495 9.01569 -5.37595 
1 -1.81076 12.5779 -3.53365 
1 -0.0435491 10.6777 -3.49012 
1 -0.150376 12.5267 -5.33999 
1 -3.59346 12.6364 -5.26099 
2 1.71056 10.8619 -5.3606 
1 3.41561 10.6514 -3.49018 
1 3.50577 8.99292 -5.45891 
1 1.69987 8.94996 -3.66089 
1 1.71022 12.4507 -3.6064 
1 7.11763 10.6746 -3.56327 
2 5.28817 10.7209 -5.49545 
1 7.14219 8.76507 -5.51525 
2 5.34148 8.90526 -3.66633 
1 10.5231 8.87571 -5.4025 
1 8.6554 10.5138 -5.39306 
1 8.85865 8.86055 -3.57191 
1 -5.38143 12.5085 -3.56219 
1 -3.58167 14.259 -3.41221 
1 -0.168366 14.2783 -3.61352 
1 3.63031 12.425 -5.3142 
2 1.8617 14.1479 -5.23536 
1 3.61221 14.2661 -3.56628 
1 5.51571 12.5124 -3.67081 
1 -14.1758 3.46043 0.0284586 
1 -14.3396 1.51188 -1.6484 
1 -14.3839 1.74146 1.95236 
2 -12.5092 3.5605 1.96099 
1 -12.4272 1.67039 0.168587 
1 -12.4465 3.46541 -1.65568 
1 -14.3295 -0.00442634 0.313417 
1 -12.3178 0.0270117 -1.58223 
2 -10.7336 3.50851 0.0499194 
1 -10.6422 1.82618 -1.75761 
1 -10.6137 1.84283 1.94261 
1 -8.83418 3.60675 -1.74403 
1 -8.79305 3.51523 1.88723 
1 -8.99277 1.76401 -0.0250529 
2 -8.88291 0.0274268 1.91787 
1 -10.6269 0.0317229 0.107439 
1 -7.07469 3.54115 -0.0328149 
1 -7.10504 1.67722 -1.57389 
1 -7.25026 1.74225 1.77258 
1 -5.35067 3.37638 -1.7644 
1 -5.39257 3.54093 1.82259 
1 -5.29772 1.67688 0.0655717 
1 -5.39734 0.0697127 -1.80886 
2 -3.67214 3.5803 0.00234921 
1 -3.55754 1.76811 -1.77285 
2 -1.78849 3.58756 -1.76644 
1 -3.52568 1.83468 1.86269 
1 -1.82283 3.64294 1.85345 
1 -1.83276 1.7831 0.0454414 
1 0.049424 1.8639 -1.76955 
1 -0.0666304 3.54084 0.0679056 
1 -0.0474984 1.80303 1.74542 
1 -1.72433 0.114451 1.80863 
1 -0.0494252 -0.117708 -0.00829535 
1 -1.70971 0.0786751 -1.8533 
2 3.51367 3.68907 0.0538205 
1 3.5349 1.82175 -1.76767 
2 1.63758 3.79787 -1.82863 
1 3.61691 1.86978 1.85943 
1 1.75811 3.58729 1.9409 
2 1.72394 1.90703 -0.00650806 
1 1.65728 0.103116 -1.75941 
1 7.05739 3.70217 0.103446 
1 7.04068 1.75452 -1.87686 
1 6.99048 1.92808 1.92343 
1 5.27909 3.64282 -1.74347 
1 5.29518 3.61823 1.95002 
2 5.44555 1.87643 0.0337292 
1 5.35993 0.0315347 -1.79292 
1 5.32949 -0.00700443 1.84847 
1 7.05117 0.0985002 0.0770624 
1 10.6158 -0.0324137 -0.00946112 
1 10.5827 3.5108 -0.0636992 
1 10.6845 1.8885 1.72028 
2 10.5976 1.60239 -1.8338 
1 8.72526 3.41324 -1.78055 
1 8.84172 3.61425 1.65078 
1 8.7439 1.91164 0.0833836 
1 12.3275 3.35586 -1.99539 
2 8.88722 0.180621 1.86107 
1 8.68865 0.160707 -1.7723 
1 12.2909 1.8008 0.0477028 
2 12.4175 -0.284544 -1.67164 
1 12.4841 3.77032 1.73548 
1 13.9892 3.49379 -0.317194 
2 14.0466 1.52381 -1.77452 
1 14.2258 2.04214 1.77658 
1 14.2927 0.157619 0.199115 
1 -12.5481 5.35048 0.0728521 
1 -12.3831 7.1051 1.82559 
1 -12.3758 7.0906 -1.8164 
1 -10.6267 6.93194 -0.0799915 
1 -10.6875 5.22397 -1.6959 
1 -10.7452 5.42185 1.86584 
1 -8.82344 7.07281 -1.7233 
2 -8.94122 7.0437 1.80418 
1 -8.8804 5.29698 0.0410604 
1 -7.09449 7.02273 -0.0462885 
1 -7.1059 5.33091 -1.81479 
2 -5.29619 7.06285 -1.76742 
1 -7.00486 5.33535 1.8189 
1 -5.33701 7.14821 1.79472 
1 -5.38754 5.31105 0.0731595 
1 -3.61447 7.14324 0.0696834 
1 -1.93489 7.19884 -1.73356 
1 -1.72127 7.25283 1.94568 
1 -3.6048 5.33665 -1.75543 
1 -3.64441 5.36941 1.91052 
2 -1.71298 5.39424 0.189578 
1 -0.0416754 5.31486 1.85233 
1 -0.257219 5.4583 -1.86272 
1 -0.0687697 7.0956 -0.0495742 
1 3.45505 7.03993 -0.145964 
1 1.59579 7.04996 -1.81127 
2 1.73241 7.12147 1.70801 
1 3.46742 5.36362 -1.85194 
2 3.61655 5.50736 1.89835 
1 1.66529 5.34598 0.0985687 
1 7.0922 7.0488 -0.0437839 
1 7.1152 5.22531 -1.91143 
2 5.22913 7.06138 -1.8196 
1 7.02012 5.33277 1.83488 
1 5.36481 7.13482 1.84946 
1 5.22371 5.36856 0.034487 
1 10.5689 6.95954 -0.250044 
1 10.6163 5.27386 1.72603 
1 10.5485 5.09881 -1.94084 
1 8.81321 7.03955 -1.82143 
2 8.84033 7.09105 1.81326 
1 8.81322 5.27239 -0.0441602 
2 12.428 6.93925 1.50323 
1 12.4034 5.2352 -0.353289 
1 12.2589 7.14999 -1.90962 
2 -8.86616 10.6493 -1.66191 
1 -9.01105 10.733 1.94553 
2 -10.6464 8.94144 -1.49441 
1 -10.8285 8.93798 1.74796 
1 -8.7922 8.7745 0.0958828 
1 -7.13824 10.6253 0.140136 
1 -5.54902 10.619 1.88356 
1 -5.46507 10.7612 -1.72693 
1 -7.20008 8.78123 -1.70767 
1 -7.09794 8.95221 1.90485 
1 -5.419 8.92 0.118837 
1 -7.12264 12.5675 1.80537 
1 -3.59949 10.6678 -0.0409645 
2 -1.63631 10.7072 1.85303 
1 -1.73517 10.6303 -1.85737 
1 -3.68149 8.98862 -1.76121 
2 -3.64458 8.96518 1.95836 
1 -1.79691 8.94336 0.0489131 
1 0.0194355 8.95838 1.73177 
1 -0.0377396 10.8318 -0.11443 
1 -1.81492 12.3629 -0.109705 
1 -0.0578526 12.4216 -1.91682 
2 0.148594 8.94909 -1.73996 
1 3.45596 10.6181 -0.0260013 
1 1.75912 10.6401 1.80962 
1 1.81049 10.6927 -1.85943 
1 3.3588 8.71523 -1.80879 
1 3.49019 8.82469 1.83674 
1 1.80573 8.87376 0.0144105 
2 1.78151 12.473 -0.237688 
1 6.91393 10.5606 -0.0101516 
1 5.16089 10.7081 1.65776 
2 5.23503 10.5048 -1.85902 
1 7.09547 8.83696 -1.87166 
1 7.04203 8.85221 1.7079 
2 5.22221 8.79573 0.07179 
2 6.99005 12.3919 1.56665 
1 10.5684 8.9161 -1.84137 
2 10.6911 8.90131 1.41662 