ITEM: TIMESTEP
1110000
ITEM: NUMBER OF ATOMS
1289
ITEM: BOX BOUNDS pp pp pp
-100 100
-100 100
-100 100
ITEM: ATOMS type x y z 
1 -1.90861 -7.18319 -12.4586 
1 -3.65043 -5.26059 -12.8246 
1 -0.266619 -5.45213 -12.4847 
1 1.48797 -7.01816 -12.4792 
1 3.3599 -5.38676 -12.5989 
1 -7.18365 -1.67122 -12.3234 
2 -5.40945 -3.61725 -12.4928 
1 -5.41131 -0.0829551 -12.6069 
2 -1.80927 -1.92906 -14.1573 
2 -3.57976 -1.75499 -12.5137 
1 -1.82299 -3.60926 -12.489 
1 -0.00398479 -1.96419 -12.4469 
1 0.105644 -3.65725 -14.1846 
1 5.40022 0.0373691 12.5365 
2 3.3555 -3.3681 -14.2238 
1 1.72613 -3.59812 -12.3845 
1 3.52512 -1.78407 -12.4459 
1 1.57066 -1.7887 -14.3348 
1 7.08262 -1.67951 12.4355 
1 5.28133 -1.78797 -14.4734 
2 6.98986 -1.89559 -12.4457 
2 5.25641 -3.66504 -12.4964 
2 5.52048 -3.53167 12.3242 
1 -1.96832 -12.6496 -7.02118 
1 -8.88257 -8.94697 -6.97946 
2 -5.4176 -10.5266 -8.8731 
1 -5.40553 -8.93772 -10.7426 
1 -6.94747 -10.5779 -6.98181 
1 -7.26447 -8.84603 -8.79797 
1 -5.27417 -8.77564 -7.03711 
1 -1.95058 -10.8242 -9.01343 
1 -1.95836 -9.02269 -10.826 
1 -3.77707 -10.9018 -7.16018 
2 -3.46929 -9.00957 -8.8818 
1 -2.0482 -8.89518 -7.04628 
1 -0.341739 -8.90335 -8.94588 
2 -0.130841 -10.741 -7.25054 
1 -0.13812 -10.5551 -10.7287 
1 1.59001 -12.4462 -7.27312 
2 1.6741 -10.6704 -9.10545 
1 1.71182 -8.79537 -10.7722 
1 3.40879 -10.8517 -7.11299 
2 3.47774 -8.88022 -8.73847 
1 1.55439 -9.04904 -7.21806 
1 5.33225 -10.7552 -8.68708 
1 7.01063 -8.9221 -8.82776 
1 5.23681 -8.88125 -7.10332 
1 7.10944 -10.6778 -7.12137 
1 5.22111 -8.98706 -10.4169 
1 8.99795 -9.00357 -7.25204 
1 -10.7323 -5.38337 -8.7836 
1 -8.88025 -5.41389 -10.4117 
1 -9.11409 -7.20691 -8.84565 
2 -8.85592 -5.20795 -7.14993 
2 -10.744 -7.07109 -6.96375 
1 -7.27703 -7.09791 -10.4938 
1 -5.52512 -5.45659 -10.8034 
1 -7.10401 -5.28139 -8.87308 
1 -5.37345 -7.05739 -8.88551 
2 -7.13191 -7.19204 -7.09738 
1 -5.46118 -5.2913 -7.14081 
2 -3.75575 -7.06444 -10.7165 
1 -2.11122 -5.46785 -10.8193 
1 -1.97903 -7.07697 -8.99087 
1 -3.8109 -5.28658 -9.08324 
1 -3.60753 -7.11749 -7.22685 
2 -2.01316 -5.30606 -7.30481 
1 -0.15066 -7.1165 -10.7324 
2 -0.0758976 -7.12926 -7.22557 
2 -0.166521 -5.33964 -9.0933 
2 3.46748 -7.10753 -10.778 
1 1.67251 -5.38973 -10.7592 
1 1.6421 -7.13809 -8.98048 
1 3.56109 -5.29354 -9.01374 
1 3.48448 -7.03768 -7.17214 
2 1.72795 -5.31194 -7.22238 
1 7.10201 -7.12888 -10.6342 
1 5.4113 -5.54866 -10.8408 
1 5.3408 -7.01017 -8.90499 
1 7.00676 -5.36151 -8.83419 
1 7.08622 -7.15846 -7.15431 
1 5.18627 -5.2535 -7.12684 
1 8.78451 -5.30905 -10.5529 
1 10.7146 -5.0798 -9.04054 
1 10.713 -6.7353 -7.18637 
2 8.85215 -7.15069 -8.74929 
1 8.86408 -5.10873 -7.21807 
1 -12.608 -1.68645 -6.93866 
1 -10.7632 -1.86175 -8.97187 
1 -8.91562 -1.66549 -10.6285 
1 -10.915 -3.60229 -7.12114 
1 -8.81758 -3.42865 -8.91058 
1 -8.99965 -1.80636 -7.1188 
1 -10.8555 -0.153395 -7.25831 
1 -8.74883 -0.0687026 -8.81775 
1 -7.12625 -3.5104 -10.6568 
1 -5.3935 -1.77547 -10.6983 
1 -7.00562 -1.85733 -8.87926 
1 -5.33988 -3.57189 -8.83071 
1 -7.1649 -3.47686 -7.17467 
1 -5.33126 -1.69488 -7.07264 
1 0.129315 0.0611317 14.2471 
1 0.0127692 -1.75682 12.287 
1 1.82739 -1.89882 14.1233 
1 -3.72736 -3.6333 -10.7115 
1 -1.78587 -1.79126 -10.6818 
1 -3.65663 -1.64527 -8.90443 
2 -2.09918 -3.46544 -8.95567 
1 -3.71384 -3.46559 -6.98991 
1 -1.869 -1.79548 -7.05133 
1 -0.144646 -1.83554 -8.87586 
1 -0.177904 -3.62898 -10.7531 
1 1.76637 -3.58152 12.3349 
1 3.62876 -1.85647 12.5402 
1 -3.75276 0.0328762 -10.7006 
1 -0.140812 -0.0966705 -7.04511 
1 -0.179159 -3.49763 -7.13865 
1 3.31979 -3.59592 -10.6647 
1 1.63229 -1.76729 -10.6319 
1 1.48991 -3.53169 -8.98068 
2 3.51314 -1.89218 -8.86587 
1 3.46882 -3.58851 -7.11354 
1 1.66959 -1.8372 -7.22122 
1 3.58609 -0.0735188 -7.11157 
1 1.77974 -0.0264553 12.296 
1 7.04708 -3.65298 -10.6317 
1 5.23626 -1.87291 -10.7575 
1 7.01195 -1.86625 -9.00631 
1 5.2872 -3.56553 -8.95707 
1 6.91003 -3.6505 -7.14205 
1 5.25965 -1.8673 -7.05874 
1 8.81658 -1.8974 -10.7513 
1 10.6866 -3.56521 -7.03283 
1 8.76523 -3.53265 -9.0457 
2 8.58196 -1.97415 -7.05035 
2 10.4525 -1.68866 -8.89612 
1 12.3478 -1.63967 -7.23725 
1 -1.81134 -14.2915 -5.06744 
1 -1.79303 -12.5233 -3.53601 
2 0.218287 -14.2586 -3.4262 
1 -0.108635 -12.6281 -5.34357 
1 3.32111 -12.7258 -5.44937 
1 -10.5736 -8.90013 -5.23256 
1 -8.81283 -10.7538 -5.27454 
2 -8.84858 -8.90828 -3.46749 
1 -5.52613 -12.5369 -3.35461 
1 -7.22156 -10.8173 -3.42741 
1 -5.32734 -10.7349 -5.26114 
1 -7.00119 -8.93302 -5.30716 
1 -5.43975 -9.08793 -3.48165 
1 -3.75388 -12.6266 -5.24237 
2 -1.96885 -10.7824 -5.43998 
1 -3.60071 -10.8502 -3.41983 
1 -3.72746 -8.86295 -5.20934 
2 -1.95011 -8.85703 -3.49275 
1 -0.0460505 -8.96795 -5.35409 
2 1.97694 -12.4599 -3.54577 
2 -0.033987 -10.7007 -3.6069 
1 1.69288 -10.7237 -5.42077 
1 3.55279 -10.7145 -3.7293 
1 3.44828 -8.96574 -5.43715 
1 1.77978 -8.99283 -3.61987 
1 5.19072 -12.6857 -3.72952 
2 7.09784 -10.7592 -3.65437 
1 5.26997 -10.8548 -5.48779 
1 7.02924 -8.91453 -5.46292 
2 5.29983 -8.88314 -3.63615 
1 8.93937 -10.5862 -5.42494 
2 8.79708 -8.84403 -3.55332 
1 10.5883 -8.93654 -5.53316 
1 -12.6221 -5.28345 -3.40761 
1 -10.6862 -7.08964 -3.59064 
1 -10.9834 -5.34362 -5.28657 
2 -8.83527 -7.07318 -5.29917 
1 -8.98708 -5.27942 -3.55891 
1 -7.07194 -7.14964 -3.43097 
1 -7.15526 -5.15727 -5.21593 
1 -5.44132 -7.06172 -5.30558 
1 -5.46719 -5.39683 -3.52816 
1 -1.85543 -7.1817 -5.41125 
1 -3.71627 -7.11715 -3.54336 
1 -3.66848 -5.43391 -5.42095 
1 -1.97512 -5.42481 -3.60698 
2 -0.161878 -5.29118 -5.40195 
1 -0.10167 -7.2568 -3.63513 
2 1.76402 -7.1863 -5.44833 
1 3.52189 -7.19797 -3.56748 
1 3.55143 -5.41002 -5.26967 
1 1.67193 -5.33863 -3.60234 
1 7.01246 -7.17495 -3.6798 
1 5.25942 -7.118 -5.46713 
1 7.08868 -5.35475 -5.40014 
1 5.38067 -5.32232 -3.51795 
1 10.6957 -7.03873 -3.61052 
1 10.7602 -5.16066 -5.13329 
2 8.79882 -7.08167 -5.49064 
2 8.79735 -5.45291 -3.55261 
1 12.5049 -5.02812 -3.34874 
1 -14.118 -3.4882 -3.41432 
1 -12.7002 -3.5786 -5.41112 
2 -12.636 -1.57149 -3.78241 
1 -10.8164 -1.75916 -5.39817 
2 -10.897 -3.51442 -3.63798 
1 -9.15814 -3.50815 -5.43503 
2 -9.02097 -1.89701 -3.53694 
2 -9.08387 -0.0430265 -5.49856 
2 -7.09402 -1.85864 -5.28732 
1 -7.14569 -3.61183 -3.41087 
1 -5.26422 -3.51304 -5.29031 
1 -5.2914 -1.76032 -3.43338 
1 -3.58647 -1.68873 -5.2435 
1 -1.93706 -3.4516 -5.30528 
1 -3.65947 -3.56795 -3.54855 
1 -1.84502 -1.7401 -3.56219 
1 -0.0790407 -1.89835 -5.3588 
1 -0.209821 -3.60534 -3.62498 
1 -3.59793 -1.91221 12.4986 
1 1.69118 -3.61144 -5.32726 
1 3.47793 -1.84544 -5.32497 
1 3.58454 -3.71632 -3.60274 
2 1.67404 -1.86587 -3.55694 
1 6.9337 -1.73023 -5.07808 
1 7.06495 -3.54184 -3.58561 
1 5.22675 -3.56548 -5.37402 
1 5.18034 -1.75612 -3.48612 
1 7.03876 0.159026 -3.45992 
1 5.24767 0.106676 -5.29049 
1 -1.71197 -1.57502 14.0924 
1 10.4356 -1.75784 -5.26701 
1 10.5992 -3.43581 -3.52591 
1 8.79094 -3.63129 -5.25485 
1 8.78426 -1.7458 -3.53282 
1 12.3506 -1.67192 -3.39185 
2 12.477 -3.16658 -5.16517 
2 14.1813 -3.22334 -3.24648 
2 14.2249 -0.0227208 -3.49457 
1 -5.16052 -12.9083 0.254368 
1 -3.38065 -14.4434 0.413012 
1 -1.85933 -14.2871 -1.65534 
1 -1.13446 -14.2476 1.64527 
1 -3.53856 -12.6234 -1.59156 
1 0.244705 -14.5859 -0.399623 
1 2.20994 -14.3893 -2.03783 
1 3.46114 -14.156 0.0946438 
2 1.45644 -14.0672 1.72738 
1 5.09119 -14.0607 -1.85427 
1 -10.7155 -10.5218 0.0638311 
1 -10.7125 -8.93256 -1.75502 
1 -9.0511 -10.6992 -1.72215 
2 -8.99963 -10.7851 1.92971 
1 -8.98913 -8.78707 0.136812 
2 -10.8565 -8.76106 1.85041 
2 -7.12854 -12.6101 1.75697 
2 -7.20246 -12.4014 -1.17376 
1 -7.23764 -10.534 0.194033 
2 -5.43964 -10.6248 -1.56764 
2 -5.21751 -10.7442 1.60101 
1 -7.17669 -8.94843 -1.69098 
1 -7.16566 -8.77288 1.86395 
1 -5.36297 -8.89415 0.149531 
1 -1.77116 -12.5027 0.0492086 
1 -3.43456 -12.3548 1.76309 
1 -3.51525 -10.7533 0.00565104 
1 -1.79021 -10.8178 -1.78917 
1 -1.81496 -10.4452 1.714 
1 -3.65535 -8.94984 -1.62558 
1 -3.51846 -8.79663 1.81344 
1 -1.84023 -8.92168 -0.0135123 
1 -0.145873 -8.82946 -1.79932 
1 -0.109729 -12.2232 1.73123 
1 -0.101344 -10.6299 0.016376 
1 0.0937611 -8.92608 1.76027 
2 1.80743 -12.3165 -0.0442069 
1 3.59947 -12.4413 1.78356 
2 0.0580672 -12.5097 -1.70783 
1 3.55038 -12.3433 -1.73333 
1 3.52003 -10.5568 -0.123847 
1 1.77944 -10.586 -1.8665 
1 1.91025 -10.6636 1.87433 
1 3.53229 -8.83946 -1.81437 
1 3.61444 -8.86411 1.80395 
1 1.73194 -8.91207 -0.00574439 
1 5.27946 -12.3488 0.0131904 
1 6.87338 -12.3547 1.77275 
2 6.96367 -12.4272 -1.85586 
1 7.00811 -10.5486 -0.144972 
1 5.21056 -10.7236 -1.90512 
1 5.13391 -10.6874 1.73206 
1 6.95758 -8.92819 -1.79567 
2 6.99154 -9.16358 1.77576 
1 5.24094 -8.84058 -0.12526 
1 8.88232 -10.6375 -1.86168 
1 8.7794 -12.2259 0.0528134 
1 10.5911 -8.82529 -1.92455 
1 10.5644 -9.04655 1.49853 
2 8.78159 -8.83861 -0.172377 
1 8.91657 -10.7279 1.97749 
1 -12.558 -5.35854 0.120699 
1 -12.3859 -7.1158 -1.66091 
2 -10.6973 -7.07771 0.0476263 
1 -10.7617 -5.28925 -1.78814 
1 -10.8337 -5.38449 1.93426 
1 -8.96561 -7.11916 -1.77801 
1 -8.93042 -6.96598 1.81429 
1 -8.92811 -5.31659 -0.121396 
1 -7.26914 -7.2063 -0.0155283 
1 -7.1969 -5.27602 -1.72394 
1 -5.43369 -7.21065 -1.69052 
2 -7.16408 -5.46548 1.67392 
1 -5.33243 -7.10638 1.71925 
1 -5.38214 -5.43826 -0.0841278 
1 -3.55291 -7.21762 -0.0435841 
1 -1.89003 -7.13922 -1.79708 
1 -1.64822 -7.38194 1.71341 
1 -3.69677 -5.41794 -1.77017 
1 -3.69895 -5.46802 1.74155 
2 -1.86571 -5.40667 0.109844 
1 -0.107432 -5.4155 -1.82115 
1 0.03685 -5.29297 1.61705 
1 0.0025228 -7.17919 -0.00685802 
1 3.54583 -7.18002 -0.0355949 
2 1.64488 -7.20672 -1.83424 
1 1.86569 -7.10815 1.71841 
2 3.56293 -5.44291 -1.77935 
1 3.48174 -5.45708 1.66332 
1 1.66697 -5.48625 -0.042873 
1 7.0018 -7.09434 -0.122203 
1 5.24447 -7.04535 -1.82856 
1 7.01704 -5.24548 -1.77239 
1 5.37921 -7.11931 1.67556 
2 7.13737 -5.2554 1.6572 
1 5.27002 -5.38521 -0.0684519 
1 10.635 -7.13612 -0.175541 
1 10.5838 -5.22461 1.69122 
1 10.6267 -5.30572 -1.81099 
1 8.75154 -7.09886 -1.89334 
1 8.86293 -6.98158 1.56269 
1 8.98528 -5.32243 -0.045456 
1 12.3436 -7.07839 -1.91551 
2 12.4318 -5.3844 -0.0822237 
1 12.3123 -7.12946 1.54976 
1 -14.3334 -3.40964 0.0296877 
2 -14.2814 -1.66166 -1.71142 
1 -14.1371 -1.84157 1.78187 
1 -12.4927 -3.52662 -1.67466 
1 -12.3332 -1.68312 -0.0392335 
1 -12.4594 -3.50198 1.81105 
1 -10.771 -3.60045 -0.0100801 
1 -10.8118 -1.72512 -1.72534 
1 -10.7718 -1.67476 1.73934 
1 -8.98364 -3.53898 -1.73328 
2 -9.00381 -3.65277 1.72606 
1 -9.02163 -1.67929 0.0304953 
1 -7.21703 -3.52018 -0.0656159 
1 -7.31174 -1.76525 -1.86251 
1 -7.20833 -1.71379 1.70577 
1 -5.37386 -3.59378 -1.81639 
2 -5.34375 -3.56149 1.70974 
2 -5.42642 -1.79415 -0.231039 
1 -3.51439 -3.61712 0.0190813 
1 -3.62122 -1.76311 -1.7925 
2 -1.91717 -3.57993 -1.812 
2 -3.55512 -1.68646 1.87229 
1 -1.81864 -3.5433 1.79118 
1 -1.9059 -1.7176 0.0152907 
1 -0.0663738 -1.73962 -1.6804 
1 0.0376728 -1.76486 1.72442 
1 -0.00323972 -3.4957 0.0121196 
2 1.72514 -0.104018 1.81844 
2 3.58971 -3.64112 0.0211728 
2 1.65131 -3.6153 -1.77342 
1 3.52185 -1.78049 -1.83205 
1 1.77272 -3.62191 1.84218 
1 3.50602 -1.88653 1.91414 
1 1.82497 -1.82912 0.00499565 
1 1.68446 -0.0920547 -1.81968 
1 7.01927 -3.53965 -0.041017 
1 7.02945 -1.67813 -1.89418 
1 7.07998 -1.78876 1.7704 
1 5.34003 -3.53003 -1.87211 
1 5.3168 -3.63612 1.89518 
2 5.38003 -1.74246 -0.0982054 
1 -1.76727 -3.58087 12.3425 
1 10.6962 -3.50725 -0.0636126 
1 10.7774 -1.86571 1.68172 
1 10.5465 -1.70175 -1.73889 
1 8.60988 -3.64786 -1.76921 
1 8.88554 -3.45183 1.75763 
2 8.71516 -1.83766 -0.0884295 
1 12.2344 -3.43463 -1.73148 
1 12.485 -1.69663 0.0648198 
2 -0.0558287 -3.3989 14.0857 
1 -5.4609 -0.236979 12.6181 
2 12.43 0.061622 -1.70079 
2 12.4459 -3.55301 1.7322 
2 14.1192 -3.54178 -0.327959 
1 14.4318 -1.54569 -1.58917 
1 14.4024 -1.87804 1.67697 
2 -5.17239 -12.5637 3.38691 
2 -2.98578 -14.2562 3.09811 
1 -0.171855 -14.2107 3.72607 
1 3.52925 -14.1138 3.43341 
1 -10.873 -10.4504 3.52304 
1 -10.7576 -8.98379 5.53754 
2 -8.93104 -8.79654 3.58021 
2 -8.91736 -10.6906 5.30466 
1 -7.07465 -10.8415 3.65887 
1 -5.28293 -10.7884 5.2931 
1 -7.14633 -9.06228 5.50165 
2 -5.47933 -8.92324 3.54495 
2 -3.27796 -12.6573 5.24157 
1 -1.67897 -12.2329 3.57242 
1 -1.66926 -10.682 5.38984 
1 -3.60354 -10.655 3.52248 
2 -3.41444 -9.0977 5.42734 
1 -1.77822 -8.90522 3.60449 
2 0.128299 -12.471 5.25574 
1 -0.0297668 -8.84755 5.39763 
1 3.41362 -12.6074 5.36263 
1 1.7571 -12.3931 3.55448 
1 -0.0907437 -10.5413 3.56566 
1 1.775 -10.6121 5.36317 
2 3.53066 -10.6853 3.688 
1 3.59198 -8.8783 5.4498 
1 1.77829 -8.82958 3.5638 
1 5.33635 -12.4816 3.60795 
1 7.09534 -10.8317 3.69602 
1 5.36186 -10.7677 5.35644 
2 7.23185 -8.91899 5.42316 
2 5.41701 -8.8496 3.62527 
1 9.1064 -10.4995 5.17065 
2 8.92604 -8.73849 3.33042 
2 10.7918 -8.43132 5.00071 
1 -12.6802 -5.1996 3.54931 
1 -10.9059 -7.06313 3.72353 
1 -10.7044 -5.4298 5.39807 
1 -8.83069 -7.11445 5.45705 
1 -8.97805 -5.35571 3.67928 
1 -7.14318 -7.04364 3.64472 
1 -7.21045 -5.33243 5.49695 
1 -5.36404 -7.15224 5.38061 
2 -5.18947 -5.46985 3.603 
1 -1.84849 -7.11805 5.34321 
1 -3.55068 -7.19717 3.619 
1 -3.54743 -5.41053 5.35109 
2 -1.79219 -5.44628 3.4746 
1 0.0539611 -7.19404 3.50667 
2 0.0985487 -5.42185 5.36656 
1 1.94978 -7.13904 5.21298 
1 3.53243 -7.12144 3.51214 
1 3.59192 -5.44419 5.43597 
1 1.83298 -5.3662 3.44136 
1 7.278 -6.99854 3.53292 
1 5.3598 -7.18513 5.43217 
2 7.27503 -5.24953 5.39057 
2 5.18281 -5.32313 3.56909 
1 10.6573 -6.85657 3.33375 
1 10.859 -5.30156 5.44101 
1 8.95251 -6.99994 5.3602 
1 9.04812 -5.24016 3.53474 
2 12.4516 -5.31389 3.50368 
1 -14.1849 -3.1958 3.76013 
1 -12.4815 -3.55595 5.45666 
1 -12.3064 -1.77828 3.82894 
1 -10.6999 -1.7984 5.40099 
1 -10.6519 -3.54874 3.5761 
1 -9.02237 -3.57068 5.50933 
2 -8.83794 -1.74549 3.55815 
1 -7.11988 -1.70583 5.54028 
2 -7.04352 -3.59266 3.91859 
1 -5.29677 -3.73537 5.60032 
1 -5.49238 -1.66574 3.59269 
2 -3.72895 -1.8643 5.30513 
2 -1.70452 -3.5685 5.24085 
1 -3.62717 -3.53982 3.56924 
1 -1.73692 -1.76143 3.49899 
1 0.0134981 -1.70914 5.33198 
1 0.104189 -3.62809 3.56641 
1 -7.18694 -1.92241 12.2789 
1 -5.42143 -3.76489 12.3093 
1 1.84335 -3.51291 5.30059 
1 3.54366 -1.73453 5.32322 
1 3.49735 -3.44649 3.62481 
1 1.69226 -1.75501 3.65495 
1 1.82568 -5.28598 14.0879 
1 1.82153 0.0734474 5.48361 
1 7.24232 -1.70708 5.36017 
1 7.24569 -3.50695 3.64297 
1 5.54516 -3.47096 5.50719 
1 5.3595 -1.91998 3.69831 
2 7.18408 0.0583345 3.57346 
1 5.31098 -0.000711616 5.44179 
2 10.9202 -1.8233 5.32004 
1 10.736 -3.61527 3.49549 
2 9.08219 -3.50219 5.39591 
1 9.00199 -1.76829 3.58466 
1 8.94831 0.0579637 5.25884 
2 12.6558 -1.79164 3.5434 
1 12.851 -3.62874 5.35039 
1 14.5116 -3.66088 3.34592 
1 14.5134 -1.71522 5.19541 
1 -1.71605 -12.4608 7.06504 
1 -9.04801 -9.02326 7.29579 
1 -5.28157 -9.10477 10.4314 
1 -5.15409 -10.831 8.72962 
1 -7.2061 -10.87 7.13454 
2 -7.02667 -8.86082 8.6157 
1 -5.30867 -8.95367 6.98066 
2 -1.81049 -9.09321 10.5781 
1 -1.82524 -10.8003 8.74324 
1 -3.57488 -10.8298 6.9989 
1 -3.5877 -8.96988 8.72065 
1 -1.56805 -8.88744 7.1347 
1 0.108494 -8.93231 9.05143 
1 0.0256009 -10.6043 7.07681 
1 1.57955 -12.3242 7.16012 
1 1.71696 -10.6991 8.97548 
1 3.50836 -10.7978 7.21901 
1 3.54909 -8.95393 8.76344 
1 1.76952 -8.82495 7.04558 
1 1.98678 -8.98884 10.6977 
1 7.10617 -10.754 7.0164 
1 5.2342 -8.83208 10.3407 
1 5.36007 -10.6601 8.78515 
1 7.25495 -8.87269 8.70396 
1 5.34157 -8.81089 7.12005 
1 9.23103 -8.83775 7.08891 
1 -10.5738 -5.29722 9.0212 
2 -10.669 -7.07219 7.23027 
1 -8.92531 -7.14282 8.80075 
1 -8.80001 -5.33299 7.15557 
1 -8.56897 -5.44853 10.7601 
1 -7.06682 -7.33018 10.548 
1 -7.11024 -5.46351 8.98056 
1 -5.31722 -7.16042 8.82032 
1 -7.08262 -7.10453 7.07653 
1 -5.37538 -5.36818 7.17804 
1 -5.44094 -5.56827 10.7589 
2 -3.61101 -7.25983 10.6836 
1 -1.81801 -5.45547 10.8306 
1 -1.77822 -7.24521 8.92562 
2 -3.53428 -5.44242 8.90059 
1 -3.45687 -7.08658 7.0377 
1 -1.74652 -5.42851 7.19468 
2 -0.0331983 -5.445 9.05524 
1 0.000554901 -7.19323 7.11752 
1 -0.085632 -7.25961 10.6235 
1 3.68831 -6.99301 10.7897 
1 1.91522 -5.3535 10.589 
1 1.89275 -7.2782 9.0103 
1 3.55123 -5.26549 8.86232 
1 3.56282 -7.1044 7.11445 
2 1.78158 -5.44077 7.24662 
1 6.99583 -6.99142 10.3609 
1 5.29166 -5.23332 10.5416 
1 5.3011 -7.05452 8.84745 
1 7.17402 -5.23536 8.8555 
1 7.2872 -7.12077 7.04989 
2 5.41131 -5.2888 7.14914 
1 8.97559 -5.24806 10.5696 
1 10.8349 -5.39509 8.95805 
1 10.7192 -7.03074 7.09748 
1 8.99093 -7.148 8.88504 
1 9.00689 -5.2664 7.25911 
2 -12.0464 -1.72426 7.30499 
1 -9.09959 -1.79939 10.5014 
1 -11.0599 -2.75819 9.35039 
2 -10.7583 -3.86464 7.19682 
1 -8.79837 -3.74412 8.9874 
2 -9.00683 -1.80575 7.4189 
1 -11.2701 -0.46734 9.34521 
1 -7.12608 -3.4809 10.5913 
1 -5.28699 -1.7793 10.8035 
1 -7.1929 -1.67639 9.06284 
2 -5.3764 -3.59244 9.01204 
1 -7.17143 -3.6118 7.22738 
1 -5.52359 -1.75781 7.26415 
1 -3.56379 -3.60781 10.7359 
1 -1.8202 -1.71311 10.8173 
1 -3.62635 -1.77168 8.96929 
2 -1.87825 -3.51127 9.01951 
1 -3.56081 -3.58192 7.17442 
1 -1.79587 -1.84693 7.11433 
1 -0.0158881 0.0997476 10.5746 
2 1.77701 -7.00844 12.3126 
1 -3.63874 -0.0749024 10.7433 
1 -0.00953444 -1.75057 9.11448 
2 -0.0484956 -3.51602 7.24413 
1 -0.0751796 -3.56783 10.7054 
1 1.74788 -1.74465 7.10289 
2 3.63887 -3.39522 7.05304 
1 1.85031 -1.90306 10.8113 
1 1.85399 -3.57064 8.93413 
1 3.48327 -1.60373 9.00885 
1 3.59612 -3.58393 10.5997 
1 3.60421 0.0769235 7.17563 
1 7.30298 -3.39223 7.14505 
1 5.38886 -3.40107 8.97962 
1 5.42463 -1.69758 7.17712 
1 7.19528 -1.77875 8.92532 
1 7.17073 -3.54178 10.5084 
1 5.47069 -1.77369 10.7127 
1 7.27113 0.0539641 7.12587 
1 5.45927 0.00726162 8.90421 
1 9.0911 -3.43264 8.90566 
2 10.9278 -1.71803 8.96168 
1 9.06263 -1.73685 7.15489 
1 9.02198 -1.68754 10.7018 
1 11.0088 -3.52577 7.24871 
2 8.96404 -0.0697006 8.89105 
2 10.842 0.00313248 7.0662 
1 0.0218301 -6.90867 13.9827 
2 12.8384 -1.7337 7.09136 
1 0.124418 -8.95785 12.3498 
1 -0.0213772 -5.23472 12.3041 
1 -3.51745 -5.35218 12.4929 
1 -1.79647 -7.2882 12.556 
1 3.69383 -5.14502 12.4517 
2 3.3559 0.00707684 -14.3426 
2 1.68947 -0.0153918 -8.83862 
2 7.27719 0.0483313 -10.8751 
2 7.0738 -0.0947137 -7.05456 
1 8.66454 -0.0268546 -8.88067 
2 10.428 0.115425 -7.0372 
1 10.2498 -0.0225009 -10.7954 
1 -10.856 -0.0108748 -3.60118 
1 3.48221 0.080879 -3.55665 
1 -14.2258 -0.099838 0.151053 
1 -9.08477 0.0983085 -1.67294 
1 -10.7618 0.0710342 -0.0736995 
2 -12.4191 0.00319349 1.88712 
1 3.51527 -0.0302766 14.1473 
1 -1.69103 -0.0104836 1.74189 
2 3.59546 0.015958 0.0619168 
1 5.34918 0.0372418 -1.87995 
1 5.4236 -0.0115049 1.8619 
1 10.5936 0.102513 0.101323 
1 -14.1861 -0.224253 3.51975 
1 -7.16519 0.0789162 3.65292 
1 -5.32807 -0.0654431 8.93033 
1 -7.14864 -0.160098 10.8158 
2 -3.55199 -0.126343 7.23371 
1 1.76235 -0.0417806 9.0442 
1 3.61264 0.0261678 10.743 
1 7.23939 0.00490741 10.6614 
1 -7.40786 1.49341 -12.3597 
1 -5.58573 3.64606 -12.5029 
2 -1.91357 1.92658 -14.4077 
2 -3.67576 1.95812 -12.5978 
1 -1.77291 3.66748 -12.6476 
2 0.0205874 1.8284 -12.535 
1 -0.0619628 3.54044 -14.3548 
1 -3.64934 0.098362 -14.225 
1 3.49765 3.60114 -14.2632 
1 3.40657 1.83362 -12.4384 
2 1.77876 3.60478 -12.3491 
1 1.58307 1.75406 -14.5127 
2 -0.224191 -0.0392084 -14.4607 
1 3.47967 5.27928 12.4889 
1 5.10319 1.82511 -14.129 
1 7.01668 1.85036 -12.5376 
1 5.26649 3.62752 -12.414 
1 -1.74159 7.11327 -12.3303 
1 -3.61856 5.30147 -12.6389 
1 0.0968679 5.38147 -12.4731 
1 1.7031 7.2054 -12.2271 
1 3.53345 5.40339 -12.4093 
1 -12.1795 1.78819 -7.40227 
1 -10.9768 2.83255 -9.3564 
1 -9.0177 1.66697 -10.5831 
2 -8.76182 3.84634 -9.0594 
2 -9.23166 2.02155 -7.39936 
1 -10.9086 3.93624 -7.1704 
1 -11.0132 0.455147 -9.63433 
1 -7.171 3.53768 -10.8649 
2 -5.42818 1.7818 -10.7268 
2 -7.1504 1.85995 -8.88191 
1 -5.46845 3.68289 -8.9611 
1 -7.12702 3.72154 -7.20981 
2 -5.40698 1.85285 -7.07254 
1 -3.58691 3.56868 -10.7342 
1 -1.95678 1.7055 -10.65 
1 -3.62912 1.73944 -8.93833 
2 -1.77893 3.51114 -8.99743 
2 -3.57166 3.54761 -7.11928 
1 -1.79028 1.70967 -7.08232 
1 -0.0744623 3.59388 -7.17044 
1 -0.137387 1.68737 -8.95509 
1 -0.0833523 3.4786 -10.7215 
1 -3.52672 0.0245368 -7.06704 
1 3.55924 3.6015 -10.645 
1 1.66915 1.79475 -10.6131 
1 3.60394 1.8472 -8.98089 
2 1.71732 3.57392 -8.93228 
1 3.58079 3.69701 -7.10408 
2 1.86453 1.79511 -7.04308 
1 1.76033 6.99826 12.5341 
2 6.98105 3.59978 -10.6004 
1 5.29695 1.77598 -10.7059 
1 7.05549 1.82178 -8.8364 
1 5.26715 3.66443 -8.92318 
1 6.99567 3.70193 -7.25015 
1 5.29784 1.77691 -7.11478 
2 5.37009 0.0297591 -8.95871 
1 0.115977 5.28555 12.5181 
1 -3.5399 5.26784 12.59 
1 8.94949 2.00733 -10.7753 
2 10.5079 1.83397 -8.9543 
1 8.81131 3.4838 -8.76487 
1 8.69064 1.84333 -7.06882 
1 10.5588 3.61302 -7.09081 
1 -1.73957 7.04889 12.5612 
1 5.29803 3.50521 12.4994 
2 12.209 1.81048 -7.05208 
1 7.01519 1.75356 12.4018 
1 -10.8214 5.46499 -9.09454 
1 -10.7391 7.10389 -7.10433 
1 -8.9317 7.31631 -8.82256 
1 -8.9886 5.5039 -7.18267 
1 -8.85724 5.70141 -10.7591 
2 -5.46916 5.35048 -10.7376 
1 -6.94326 7.345 -10.7566 
1 -7.04924 5.48531 -8.90992 
1 -5.29824 7.15762 -8.9185 
2 -7.08455 7.21913 -7.13046 
1 -5.28074 5.40725 -7.19119 
2 -3.62798 7.17233 -10.6804 
1 -1.72022 5.3677 -10.76 
1 -1.88886 7.25308 -8.87765 
2 -3.57326 5.47084 -8.94931 
1 -3.56014 7.12967 -6.89441 
1 -1.87796 5.4016 -7.07817 
2 -0.0115736 5.54856 -8.88155 
1 -0.0661549 7.32093 -7.08541 
1 -0.0726735 7.22668 -10.6027 
1 3.46349 7.21347 -10.6061 
1 1.88331 5.41978 -10.6137 
2 1.77059 7.2849 -8.85136 
1 3.57421 5.46912 -8.90797 
1 3.44356 7.14847 -6.97384 
1 1.78461 5.48032 -7.08962 
1 7.11696 7.13941 -10.6428 
1 5.25808 5.44423 -10.5903 
1 7.10986 5.41125 -8.97204 
1 5.25461 7.30476 -8.8594 
1 7.18457 7.05866 -7.15108 
1 5.3025 5.44395 -7.25052 
1 8.83086 5.31238 -10.5708 
1 10.6572 4.87138 -9.13992 
1 8.89652 7.30563 -8.97902 
1 8.83066 5.24054 -7.29766 
2 10.5215 6.83998 -7.22536 
1 -9.06572 8.96093 -7.02007 
1 -5.01293 9.18264 -10.7016 
1 -5.37499 10.6519 -8.82188 
1 -7.02725 8.99983 -8.87604 
1 -5.31123 8.92624 -7.10259 
1 -7.20119 10.4743 -6.87161 
2 -1.77092 9.00836 -10.6705 
2 -1.79006 10.7189 -8.94861 
1 -3.57537 10.7826 -7.07573 
1 -3.62173 8.93593 -8.85626 
1 -1.88805 8.92274 -6.97544 
1 -0.0476819 8.98299 -8.77163 
1 0.0514312 10.6502 -7.03409 
1 -0.0496909 12.3793 -8.6779 
1 1.37089 9.11147 -10.6949 
1 1.78402 10.7202 -8.87002 
1 3.63374 10.9037 -7.08839 
1 3.53709 8.99345 -8.85561 
1 1.84301 8.97684 -6.97739 
1 5.27834 8.87793 -10.6008 
1 5.40189 10.6506 -8.9232 
1 7.16162 10.7569 -7.12272 
1 7.10452 9.00814 -8.88073 
1 5.32132 9.03335 -6.9937 
1 8.86521 8.82112 -7.03716 
1 -1.86946 12.4559 -7.01942 
2 1.78529 12.4917 -7.19601 
2 -14.1604 3.18189 -3.33444 
1 -14.3269 0.194677 -3.63492 
1 -12.7271 0.274097 -5.65416 
2 -12.5258 3.57514 -5.33112 
1 -12.3628 1.71098 -3.63457 
2 -10.7127 1.8088 -5.30793 
1 -10.7598 3.75909 -3.56112 
1 -8.95253 3.77544 -5.51632 
2 -9.0419 1.8428 -3.5514 
1 1.86866 1.5957 14.2977 
1 -7.26171 1.79006 -5.42285 
2 -7.15407 3.73938 -3.66004 
1 -5.42566 3.66697 -5.39098 
1 -5.45596 1.92587 -3.79773 
2 -7.17876 0.102636 -3.55561 
1 -5.29315 -0.0267509 -5.33359 
1 -3.5135 1.8073 -5.3491 
1 -1.81559 3.57225 -5.36615 
1 -3.57772 3.56547 -3.58392 
1 -1.66896 1.74614 -3.60687 
1 -0.0862959 1.95417 -5.36978 
1 -0.134741 3.63326 -3.51724 
1 -0.100843 -0.0188792 -3.49073 
1 -3.60744 0.172198 -3.60302 
1 3.55216 1.87634 -5.24292 
2 1.75463 3.69572 -5.38496 
1 3.53117 3.68666 -3.6172 
2 1.65606 1.78374 -3.61539 
1 1.60177 -0.0528867 -5.38651 
1 3.37452 3.4517 14.1528 
1 7.04139 1.79858 -5.28903 
1 7.0725 3.65473 -3.45896 
1 5.364 3.61426 -5.40845 
1 5.24417 1.9804 -3.5319 
1 10.6531 1.86446 -5.28536 
1 10.5751 3.54617 -3.70795 
2 8.76008 3.64671 -5.39524 
1 8.81487 1.74339 -3.56718 
1 10.5993 -0.0165058 -3.55379 
1 12.4876 1.77505 -3.65765 
1 8.76854 -0.00559484 -5.25479 
1 12.5094 3.66717 -5.55241 
1 14.1803 3.59153 -3.48951 
1 -12.6066 5.21595 -3.47184 
1 -10.6547 7.11013 -3.40631 
1 -10.7824 5.45811 -5.31516 
2 -8.9114 7.20682 -5.25151 
1 -8.88638 5.38153 -3.6266 
1 -7.24726 7.16155 -3.49859 
1 -7.07073 5.53621 -5.42631 
1 -5.3671 7.11646 -5.1289 
1 -5.24823 5.33626 -3.53525 
1 -1.78983 7.32777 -5.22181 
1 -3.55245 7.21244 -3.44157 
1 -3.58997 5.39273 -5.29672 
1 -1.99317 5.40807 -3.56912 
1 -0.0695982 5.26322 -5.39591 
2 -0.14227 7.10077 -3.59069 
1 1.6742 7.12675 -5.30613 
2 3.45342 7.13097 -3.58118 
1 3.60471 5.37991 -5.3933 
1 1.6677 5.41895 -3.50594 
1 7.11966 7.00528 -3.62096 
1 7.07478 5.25077 -5.33153 
2 5.33973 7.15985 -5.27099 
1 5.26663 5.39335 -3.4608 
1 10.6781 7.19525 -3.62067 
1 10.6529 5.34447 -5.40939 
1 8.80862 7.01661 -5.40172 
1 8.80546 5.36798 -3.53919 
2 12.3088 5.26093 -3.5767 
1 -10.8364 8.7753 -5.0801 
1 -9.0035 10.5216 -5.08779 
1 -8.88772 8.87479 -3.32561 
1 -10.6596 10.6336 -3.34804 
1 -7.33862 10.6275 -3.29773 
1 -5.35209 10.793 -5.20732 
1 -7.0441 8.90262 -5.1622 
1 -5.44801 8.95339 -3.30277 
1 -1.85801 10.7201 -5.28529 
1 -3.5836 10.7173 -3.49917 
2 -3.68475 8.95835 -5.26234 
1 -1.89145 8.94064 -3.48444 
1 -1.81306 12.3633 -3.55234 
1 -3.51197 12.4842 -5.27083 
1 0.0921456 9.01353 -5.25725 
1 0.0934036 10.7707 -3.60008 
2 1.85637 10.8611 -5.33106 
1 3.5928 10.8759 -3.58863 
1 3.54767 9.04208 -5.37646 
1 1.7102 9.02941 -3.49893 
1 1.79297 12.504 -3.40685 
1 7.24149 10.7051 -3.56608 
2 5.5427 10.9378 -5.32405 
1 7.16553 8.94556 -5.36779 
2 5.46078 8.97254 -3.57279 
1 10.6633 8.65851 -5.36791 
1 8.87924 10.6011 -5.45143 
1 8.87646 8.83772 -3.65767 
1 -5.29037 12.5589 -3.57212 
1 -0.0700309 12.5617 -5.31971 
1 -3.33921 14.2235 -3.48253 
1 -0.0502841 14.2721 -3.65941 
1 3.87123 12.6611 -5.46282 
2 1.8776 14.1018 -5.15421 
1 3.5332 14.2924 -3.55574 
1 5.45882 12.7814 -3.48484 
1 -14.1739 3.31348 0.226423 
1 -14.3565 1.6146 -1.65203 
1 -14.4798 1.61385 1.90903 
2 -12.4825 3.46445 1.90293 
1 -12.6573 3.54444 -1.68245 
1 -12.4594 1.72613 0.0229136 
1 3.62114 1.7055 12.5141 
1 1.75275 3.49166 12.4994 
2 -10.7752 3.64723 -0.021951 
1 -10.7921 1.82542 -1.79688 
1 -10.6163 1.94138 1.81991 
1 -8.93606 3.62455 -1.83707 
1 -9.08165 3.55223 1.88365 
1 -8.98625 2.0171 0.0194456 
2 -9.0145 0.0939681 1.80992 
2 0.0485314 3.4592 14.1834 
1 0.108809 1.61033 12.3597 
1 -12.5525 0.145289 -1.73462 
1 -7.2081 3.70195 0.0146415 
1 -7.12646 1.92609 -1.84113 
1 -7.32357 1.94087 1.76954 
1 -5.42785 3.62272 -1.83 
1 -5.3522 3.47926 1.76195 
1 -5.5712 1.89205 -0.0797543 
1 -5.366 0.239461 -1.8513 
2 -5.55142 0.222076 1.75482 
1 -7.26252 0.15841 -0.12313 
2 -3.59858 3.565 0.0562953 
1 -3.50162 1.84604 -1.85581 
2 -1.78736 3.52331 -1.77409 
1 -3.52885 1.80073 1.77587 
1 -1.84571 3.61447 1.85807 
1 -1.7822 1.74226 0.0660314 
1 -0.0363729 1.64441 -1.73574 
1 -3.61349 0.138964 -0.0630185 
1 -0.107969 1.86906 1.84425 
1 -0.132674 3.526 0.0745451 
1 0.0117579 0.0453881 -0.0392887 
1 -3.58536 3.26602 14.1033 
1 -1.93542 -0.0116094 -1.78191 
2 3.48554 3.52751 0.0444344 
1 3.63877 1.69443 -1.81547 
2 1.72132 3.59526 -1.80458 
1 3.58292 1.73151 1.97875 
1 1.69717 3.53446 1.84404 
2 1.73316 1.67793 0.0425455 
2 -3.5947 1.66189 12.331 
1 7.02665 3.60875 0.101909 
1 7.06337 1.77731 -1.78733 
1 7.29082 1.86716 1.72238 
1 5.25651 3.56692 -1.86405 
1 5.46833 3.64095 1.98607 
2 5.36788 1.82697 0.184181 
2 -1.6696 3.5978 12.5621 
1 -1.72607 1.54648 14.2855 
1 10.6564 3.55553 -0.0673365 
1 10.7038 1.95256 1.75947 
2 10.6393 1.879 -1.79675 
1 8.76022 3.57088 -1.80859 
1 8.93094 3.67286 1.75874 
1 8.88402 1.99123 0.0795749 
1 -7.07201 1.82178 12.4719 
1 12.4207 3.55337 -1.79384 
1 12.503 1.81806 0.220192 
1 12.5491 3.66036 1.71201 
1 12.3882 0.0425702 1.75456 
1 14.2305 3.81166 -0.168357 
2 14.2667 1.72824 -1.67576 
1 14.2811 1.96764 1.66193 
1 14.253 0.0994284 0.162335 
1 -12.6001 5.39315 -0.0208899 
1 -12.4544 7.05445 -1.73812 
1 -12.5445 6.97884 1.74447 
1 -10.748 7.03885 0.0614541 
1 -10.6353 5.32396 -1.80724 
1 -10.7783 5.35205 1.79932 
1 -8.95415 7.0307 -1.63673 
2 -8.98932 7.03131 1.7629 
1 -8.86991 5.35941 0.0164455 
1 -7.09625 7.17917 0.144855 
1 -7.22256 5.36888 -1.79425 
2 -5.3932 7.184 -1.68798 
1 -7.13719 5.28635 1.82802 
1 -5.40845 7.14367 1.95765 
1 -5.39101 5.39335 -0.00557868 
1 -3.5851 7.10972 0.204992 
1 -1.86866 7.07316 -1.80974 
1 -1.73092 7.124 1.87462 
1 -3.58878 5.34938 -1.73626 
1 -3.71309 5.32571 1.80896 
2 -1.82768 5.46757 0.00618136 
1 -0.0716122 5.32653 1.73044 
1 -0.0499434 5.40094 -1.70461 
1 -0.0530266 7.28276 -0.0255538 
1 3.5837 7.08026 0.0682532 
1 1.77752 7.25215 -1.67935 
2 1.69046 7.02523 1.9419 
1 3.5016 5.338 -1.5999 
2 3.63995 5.39728 1.89637 
1 1.76083 5.39015 -0.0618438 
1 7.16632 7.13844 0.0300958 
1 7.1162 5.24097 -1.62684 
2 5.37829 7.07208 -1.69258 
1 7.27231 5.41022 1.82765 
1 5.44454 7.15528 1.91041 
1 5.40941 5.29669 0.0802719 
1 10.5395 7.08257 -0.140154 
1 10.6383 5.30793 1.66748 
1 10.6259 5.24637 -1.78923 
1 8.95009 7.12032 -1.906 
2 9.01257 7.2943 1.83316 
1 8.93211 5.34351 -0.101525 
2 12.0548 7.23544 1.87401 
1 12.3518 7.12268 -1.79991 
1 12.4198 5.43095 0.0763801 
2 -9.01449 10.7118 -1.48551 
1 -8.95713 10.8323 1.62178 
2 -10.7638 8.90153 -1.55364 
1 -10.7851 8.9776 1.67583 
1 -8.91331 8.83002 0.0579783 
1 -7.1052 10.6681 0.0611201 
1 -5.37291 10.7499 1.75187 
1 -5.40769 10.662 -1.70713 
1 -7.34914 8.84056 -1.60859 
1 -7.1467 8.99307 1.70732 
1 -5.31304 8.99881 0.00929438 
1 -7.09109 12.5119 1.68058 
2 -5.30234 12.5351 0.0238086 
1 -3.5983 10.7078 -0.0106513 
2 -1.73546 10.8884 1.90302 
1 -1.74151 10.7272 -1.66907 
1 -3.48073 8.89669 -1.7142 
2 -3.56194 8.92599 1.79858 
1 -1.86761 8.97853 0.0344742 
1 -0.0699011 10.602 0.17176 
1 -3.47159 12.4646 -1.84432 
1 -0.0659644 12.3171 -1.69879 
1 -0.0227879 8.94315 1.76455 
2 -0.00682145 8.99189 -1.80559 
1 3.64015 10.6878 -0.00116103 
1 1.77941 10.662 1.92608 
1 1.94321 10.7655 -1.77257 
1 3.52382 8.88959 -1.76677 
1 3.57756 8.85009 1.91242 
1 1.82778 8.96801 0.126483 
2 1.68453 12.3565 0.0675722 
2 3.63449 12.5872 -1.76331 
1 6.90935 10.5158 0.0224918 
1 5.24227 10.6698 1.85489 