ITEM: TIMESTEP
140000
ITEM: NUMBER OF ATOMS
1289
ITEM: BOX BOUNDS pp pp pp
-100 100
-100 100
-100 100
ITEM: ATOMS type x y z 
1 -1.63053 -6.96102 -12.4583 
1 -3.42145 -5.38057 -12.7219 
1 0.0377794 -5.25259 -12.5294 
1 1.58896 -7.17562 -12.6469 
1 3.42996 -5.33293 -12.6707 
1 -7.06543 -1.80779 -12.5617 
2 -5.34512 -3.46747 -12.5785 
1 -5.29728 -0.207758 -12.6294 
2 -1.63344 -1.72798 -14.3496 
2 -3.55387 -1.96109 -12.6271 
1 -1.70937 -3.61151 -12.6779 
2 -1.73873 -0.0811753 -12.4424 
1 0.159672 -3.43886 -14.2844 
1 0.0460868 -1.76838 -12.5388 
2 1.95843 -1.69799 -14.229 
1 1.89708 -3.57685 -12.6697 
1 3.61546 -1.6689 -12.3849 
1 0.0688751 0.0765034 -14.4556 
1 4.983 -1.71795 -14.2863 
2 6.97908 -1.91645 -12.6064 
2 5.16144 -3.54864 -12.621 
1 -1.95651 -12.5766 -7.09605 
1 -8.97774 -9.11078 -7.08867 
2 -5.0827 -10.5771 -9.04586 
1 -5.26204 -8.90188 -10.6722 
1 -7.11803 -10.8371 -6.96642 
1 -7.1177 -9.04602 -8.95451 
1 -5.43613 -9.00112 -7.2137 
1 -2.11476 -10.8527 -8.90204 
1 -1.68051 -8.96977 -10.7034 
1 -3.65768 -10.7002 -7.09699 
2 -3.40029 -8.75549 -8.78595 
1 -1.88006 -8.99994 -6.98619 
1 -0.00352298 -8.86619 -8.83078 
2 -0.033375 -10.6586 -7.2513 
1 1.93247 -12.457 -6.95697 
1 0.0556902 -10.741 -10.3695 
2 1.9481 -10.7556 -8.89075 
1 1.57351 -9.0405 -10.7548 
1 3.64061 -10.8864 -7.22928 
2 3.49246 -8.7304 -9.08828 
1 1.86674 -9.00008 -7.22125 
1 5.34841 -10.5651 -9.02472 
1 5.54805 -8.6925 -10.8275 
1 7.22141 -8.74749 -9.0652 
1 5.25561 -8.80912 -7.3549 
1 7.02055 -10.5057 -7.34061 
1 9.00723 -8.83269 -7.17115 
1 -10.6632 -5.20717 -8.92335 
1 -8.79952 -5.529 -10.5575 
2 -10.5923 -7.15388 -7.01322 
1 -8.99321 -7.24822 -8.95148 
2 -8.8803 -5.46413 -7.18322 
1 -7.04124 -7.11725 -10.7115 
1 -5.4324 -5.3906 -10.9502 
1 -6.98334 -5.3717 -8.98547 
1 -5.39284 -7.13968 -8.88973 
2 -7.14181 -7.24599 -7.16293 
1 -5.37907 -5.31834 -7.14298 
2 -3.54556 -6.99568 -10.6956 
1 -1.81471 -5.28766 -10.7542 
1 -1.8481 -7.15237 -8.90582 
1 -3.64526 -5.32209 -8.84441 
1 -3.68462 -7.13245 -7.03413 
2 -1.83581 -5.41015 -7.0585 
2 0.0284291 -7.23646 -7.17069 
1 0.021003 -7.07505 -10.7821 
2 -0.0614432 -5.36839 -8.97417 
2 3.48498 -7.06855 -10.9552 
1 1.6586 -5.35155 -10.7884 
1 1.73214 -7.20826 -9.12621 
1 3.56986 -5.35364 -9.10482 
1 3.49055 -7.05862 -7.09776 
2 1.79306 -5.34573 -7.28546 
1 7.19967 -6.76937 -10.9776 
1 5.36148 -5.27637 -10.8706 
1 5.35004 -7.07181 -9.05306 
1 7.02205 -5.25368 -8.96685 
1 7.04487 -7.13577 -7.21439 
1 5.23662 -5.3906 -7.24142 
1 8.95164 -4.95611 -10.707 
1 10.7041 -5.16376 -8.88282 
1 10.7728 -6.97136 -7.25102 
2 8.84242 -6.8454 -8.92622 
1 8.86994 -5.25882 -7.20177 
1 -12.4486 -1.74334 -7.16481 
1 -10.6508 -1.95831 -8.98559 
1 -8.89646 -1.88469 -10.7314 
1 -10.7363 -3.58583 -7.06064 
1 -8.79727 -3.66993 -8.9554 
1 -8.91748 -1.82789 -7.20781 
1 -8.91492 -0.199793 -8.92927 
1 -10.7554 -0.0777728 -7.22647 
1 -7.10336 -3.64002 -10.7794 
1 -5.34064 -1.86161 -10.8954 
1 -7.1057 -1.85998 -9.04014 
1 -5.25754 -3.6499 -9.03803 
1 -7.20069 -3.54322 -7.29992 
1 -5.29464 -1.89297 -7.33174 
1 -5.28247 -0.164974 -9.01458 
1 -7.05758 -0.186537 -7.24537 
1 -7.12973 -0.152157 -10.7092 
1 -3.69156 -3.72149 -10.7406 
1 -1.6344 -1.79113 -10.7881 
1 -3.49278 -1.81663 -9.01806 
2 -1.88158 -3.50349 -9.04016 
1 -3.60132 -3.51856 -7.21659 
1 -1.76439 -1.80681 -7.19024 
1 -3.58947 -0.114771 -10.7634 
1 0.0537058 -1.77515 -8.92771 
1 -1.78275 -0.118643 -9.01943 
1 0.022489 -0.00941996 -7.1293 
1 -3.52959 0.00805991 -7.17329 
1 -0.0491271 0.110825 -10.7305 
1 0.107144 -3.60735 -7.16529 
1 0.0825558 -3.53645 -10.8693 
1 3.43325 -3.5872 -10.7958 
1 1.7378 -1.86306 -10.8009 
1 1.79772 -3.5706 -9.0234 
2 3.60886 -1.79358 -8.98808 
1 3.60624 -3.5535 -7.17348 
1 1.78487 -1.84443 -7.13692 
2 1.721 0.00703871 -9.04254 
1 3.56363 0.0815855 -10.7298 
1 3.59978 -0.0922572 -7.23351 
1 7.01734 -3.54578 -10.7667 
1 5.38927 -1.81069 -10.7575 
1 7.18361 -1.80627 -9.03549 
1 5.33626 -3.58974 -8.98804 
1 7.04585 -3.57273 -7.11701 
1 5.37172 -1.81867 -7.13875 
2 7.14116 0.0631826 -7.09321 
2 7.29653 0.0777716 -10.7506 
1 8.85373 -1.9266 -10.8232 
1 10.744 -3.58435 -7.06278 
1 8.82769 -3.52866 -8.82651 
2 8.90401 -1.85629 -7.07984 
2 10.6439 -1.92647 -8.99199 
1 10.7366 0.103654 -10.4987 
1 8.88579 -0.00878108 -8.92111 
1 12.5122 -1.69541 -7.28627 
1 -5.28814 -12.5133 -3.50668 
1 -3.41268 -14.0853 -3.26248 
1 -3.61798 -12.4916 -5.28909 
2 -0.199584 -14.1928 -3.42606 
1 3.24909 -14.2122 -3.37596 
2 1.75316 -12.4045 -3.54021 
1 3.69916 -12.5458 -5.26943 
1 -0.0912725 -12.551 -5.39457 
1 -10.7317 -8.93482 -5.15504 
1 -8.82345 -10.67 -5.28662 
2 -8.88828 -8.98373 -3.34594 
1 -7.08822 -10.7187 -3.59219 
1 -5.31654 -10.7115 -5.34291 
1 -7.03125 -8.95237 -5.29948 
1 -5.43106 -8.87845 -3.6591 
1 -1.89448 -12.3644 -3.36593 
2 -1.81559 -10.7444 -5.26794 
1 -3.64557 -10.637 -3.567 
1 -3.73424 -8.88887 -5.48196 
2 -1.92773 -8.8674 -3.59847 
1 0.0128053 -8.88958 -5.35821 
2 0.077108 -10.6993 -3.64252 
1 1.88396 -10.6168 -5.52124 
1 3.67584 -10.7441 -3.74608 
1 3.59268 -8.9271 -5.58122 
1 1.78371 -8.95821 -3.60884 
1 5.29011 -12.6457 -3.40384 
2 7.11137 -10.8349 -3.63582 
1 5.37242 -10.8152 -5.63312 
1 6.95092 -8.83228 -5.47969 
2 5.23802 -8.8995 -3.70298 
1 8.69516 -10.574 -5.40806 
2 8.85213 -8.86758 -3.64821 
1 10.6922 -8.9759 -5.474 
1 -12.6026 -5.47687 -3.41655 
1 -10.8209 -7.06882 -3.50766 
1 -10.8262 -5.37533 -5.44687 
2 -8.80026 -7.21036 -5.25078 
1 -8.91857 -5.3818 -3.6296 
1 -7.05019 -6.99768 -3.51412 
1 -7.06042 -5.35344 -5.30361 
1 -5.46878 -7.08211 -5.44554 
1 -5.30175 -5.33854 -3.61445 
1 -1.82514 -7.17572 -5.29955 
1 -3.49451 -7.12917 -3.63129 
1 -3.64263 -5.32578 -5.42968 
1 -1.80771 -5.32395 -3.56054 
2 0.106544 -5.31603 -5.15665 
1 -0.0379083 -7.23057 -3.48679 
2 1.92576 -7.17857 -5.33973 
1 3.59103 -7.10385 -3.60966 
1 3.56462 -5.28803 -5.35542 
1 1.8883 -5.45217 -3.50812 
1 7.07257 -7.06888 -3.5921 
1 5.23763 -7.00739 -5.47912 
1 7.05398 -5.35371 -5.46004 
1 5.35994 -5.36743 -3.66334 
1 10.8056 -7.2008 -3.63796 
1 10.7944 -5.32548 -5.34447 
2 8.91758 -7.07215 -5.56933 
2 8.95279 -5.31671 -3.61215 
1 12.5245 -5.29786 -3.43978 
1 -14.2008 -3.57701 -3.38217 
1 -12.6461 -3.50725 -5.2505 
2 -12.5355 -1.63187 -3.60129 
1 -12.5804 0.07944 -5.42036 
1 -10.8723 -1.72635 -5.3537 
2 -10.7313 -3.60947 -3.63865 
1 -8.97117 -3.66488 -5.39808 
2 -8.92613 -1.82662 -3.49635 
2 -8.91269 0.00399663 -5.41431 
1 -10.7419 -0.0293193 -3.51835 
2 -7.20736 -1.88498 -5.44418 
1 -7.09994 -3.64696 -3.63248 
1 -5.38215 -3.5233 -5.49899 
1 -5.30193 -1.82316 -3.69855 
1 -5.2447 -0.112917 -5.3737 
2 -7.03749 -0.0809915 -3.38131 
1 -3.65905 -1.79493 -5.3702 
1 -1.82274 -3.47028 -5.33905 
1 -3.61937 -3.59205 -3.68402 
1 -1.8455 -1.77112 -3.68372 
1 -0.0723225 -3.49065 -3.52686 
1 0.0435165 -1.75602 -5.43253 
1 -3.54548 -0.0474222 -3.58227 
1 -0.0782229 0.0164393 -3.5409 
1 -1.74089 -0.0230442 -5.41036 
1 1.84927 0.00443753 -5.47129 
1 1.88412 -3.52582 -5.27814 
1 3.56157 -1.68014 -5.47083 
1 3.56868 -3.49336 -3.59435 
2 1.78333 -1.73705 -3.63491 
1 7.07529 -1.95909 -5.20478 
1 7.18771 -3.58474 -3.53244 
1 5.28078 -3.6278 -5.28746 
1 5.32314 -1.72891 -3.5101 
1 5.4223 0.0268811 -5.28499 
1 7.13379 -0.0486314 -3.60236 
1 10.7068 -1.71672 -5.40243 
1 10.664 -3.39627 -3.57421 
1 8.92866 -3.5299 -5.42435 
1 8.90822 -1.83449 -3.57119 
1 12.3744 -1.62784 -3.41503 
2 12.5369 -0.069527 -5.28987 
2 14.3025 -0.189725 -3.60835 
2 12.4647 -3.3183 -5.21809 
2 14.0529 -3.38905 -3.3757 
1 -5.44325 -12.5204 0.135272 
1 -3.63341 -14.1213 0.0810731 
1 -1.81322 -14.2854 -1.55878 
1 -1.97404 -14.3397 1.87666 
1 -0.0609953 -14.2377 0.16709 
2 -0.0144603 -12.3965 -1.57495 
1 3.35665 -14.1644 -0.125057 
1 1.58191 -14.3169 -1.66768 
2 1.66017 -14.1743 1.90092 
1 -11.1631 -9.44341 0.560666 
1 -10.9049 -8.99032 -1.89906 
1 -8.93808 -10.7327 -1.49013 
2 -9.00127 -10.3821 1.54031 
1 -8.77488 -8.63 -0.0579008 
2 -7.28408 -12.3356 1.68414 
2 -7.10168 -12.349 -1.62 
1 -7.06987 -10.5506 0.0387013 
2 -5.15237 -10.7099 -1.61744 
2 -5.43021 -10.6972 1.87179 
1 -7.01006 -8.92959 -1.8231 
1 -7.15017 -8.60669 1.67817 
1 -5.18432 -8.94831 0.00934813 
1 -3.46671 -12.4369 -1.57944 
1 -3.75483 -12.5008 1.87352 
1 -1.78229 -12.496 0.265845 
1 -3.48522 -10.7305 0.287464 
1 -1.82832 -10.6071 -1.82058 
1 -1.90001 -10.7013 1.97591 
1 -3.60475 -8.83214 -1.86355 
1 -3.46181 -8.93751 1.83851 
1 -1.89188 -8.80237 0.108331 
1 -0.194322 -10.6001 0.160326 
1 -0.0195472 -8.92414 -1.68688 
1 -0.0884655 -8.80768 1.75146 
1 3.47726 -12.4156 1.82507 
1 -0.142964 -12.3673 1.94405 
1 3.49639 -12.4544 -1.78728 
2 1.74203 -12.4234 0.0593846 
1 3.63336 -10.7082 0.0555026 
1 1.81112 -10.6449 -1.65747 
1 1.62554 -10.7343 1.82468 
1 3.55559 -9.03393 -1.80845 
1 3.42731 -8.97574 1.7127 
1 1.65238 -8.97553 0.0468924 
1 5.24422 -12.492 0.0298116 
1 7.2107 -12.384 1.63974 
2 7.00919 -12.3899 -1.66282 
1 6.90522 -10.6332 -0.0716665 
1 5.26204 -10.6861 -1.80043 
1 5.2563 -10.7863 1.72696 
1 6.98596 -8.98995 -1.84739 
2 7.08645 -8.98387 1.7474 
1 5.26035 -8.82845 -0.0804865 
1 9.07532 -10.8657 -2.00391 
1 8.9685 -11.8168 0.0667523 
1 10.6254 -8.99051 -1.83003 
1 10.8432 -8.91144 1.75036 
2 8.86017 -9.08676 0.0325758 
1 9.18356 -10.9252 2.29635 
1 -12.654 -7.19847 -1.61673 
1 -12.5563 -5.32316 -0.00819662 
2 -12.106 -7.3118 1.82844 
2 -10.7335 -7.04614 -0.148831 
1 -10.7428 -5.30137 -1.85826 
1 -10.8128 -5.31884 1.71586 
1 -8.88969 -7.1428 -1.84988 
1 -9.22315 -7.10082 1.77694 
1 -8.91112 -5.36003 -0.165541 
1 -7.0879 -7.09987 -0.11509 
1 -7.00895 -5.23345 -1.8163 
1 -5.36886 -7.11345 -1.80425 
2 -7.07878 -5.62939 1.78946 
1 -5.16007 -7.11997 1.73052 
1 -5.39328 -5.38461 -0.099557 
1 -3.58777 -7.09135 0.024158 
1 -1.7629 -7.09793 -1.75264 
1 -1.81038 -7.0523 1.81888 
1 -3.5696 -5.4094 -1.9296 
1 -3.61763 -5.27215 1.72807 
2 -1.82187 -5.35281 0.0132032 
1 -0.010855 -7.13308 -0.0387198 
1 -0.00334659 -5.43771 -1.85563 
1 -0.0693055 -5.28481 1.82084 
1 3.65116 -7.05306 0.0758894 
2 1.83426 -7.174 -1.71976 
1 1.7141 -7.1917 1.7749 
2 3.57717 -5.36137 -1.82506 
1 3.44579 -5.40248 1.86801 
1 1.73714 -5.40839 0.0726992 
1 7.11313 -7.13963 -0.0792058 
1 5.3325 -7.1385 -1.83695 
1 7.20132 -5.40168 -1.79707 
1 5.26721 -7.20681 1.74363 
2 7.26703 -5.3958 1.79357 
1 5.45966 -5.46586 -0.0652918 
1 10.7576 -7.23428 -0.0184979 
1 10.5819 -5.47129 1.68171 
1 10.7024 -5.29172 -1.88718 
1 8.99389 -7.12055 -1.76175 
1 8.93923 -7.24256 1.74246 
1 9.05944 -5.47638 -0.0860255 
1 12.3855 -7.16093 -1.8218 
2 12.6428 -5.44539 -0.181692 
1 12.4522 -6.94269 1.83952 
1 -14.2894 0.155873 -0.0169442 
1 -14.2256 -3.51165 -0.00528992 
2 -14.1998 -1.72232 -1.5974 
1 -14.2743 -1.69145 1.8642 
1 -12.479 -3.50413 -1.70195 
1 -12.4472 -1.79164 0.0479268 
1 -12.4386 -3.5374 1.86513 
1 -10.781 -3.71472 0.0139312 
1 -10.706 -1.78292 -1.70381 
1 -10.587 -1.90883 1.87497 
1 -8.8378 -3.62516 -1.83388 
2 -8.97798 -3.72956 1.74169 
1 -8.89608 -1.86281 -0.143428 
1 -7.19563 -3.49883 -0.0767337 
1 -7.05311 -1.83811 -1.81827 
1 -7.13289 -1.91071 1.78138 
1 -5.27829 -3.56292 -1.98716 
2 -5.33527 -3.58797 1.82663 
2 -5.30632 -1.76475 -0.105903 
1 -3.57756 -3.69418 -0.0232668 
1 -3.58057 -1.82679 -1.84297 
2 -1.7125 -3.55541 -1.85619 
2 -3.51524 -1.722 1.82161 
1 -1.76457 -3.50925 1.83351 
1 -1.8315 -1.84695 0.00586282 
1 -0.0773172 -1.74034 -1.79994 
1 -0.032593 -3.6602 0.0742388 
1 -0.0838522 -0.0576845 -0.0174522 
1 -0.202675 -1.78579 1.75235 
2 3.62418 -3.64693 0.0422471 
2 1.64498 -3.53794 -1.7611 
1 3.60952 -1.847 -1.79244 
1 1.72103 -3.57351 1.86638 
1 3.57709 -1.9371 1.96418 
1 1.72401 -1.8174 -0.00294862 
1 1.8814 -0.201319 -1.67391 
2 3.70765 -0.123508 0.164947 
2 1.70075 -0.23763 1.77973 
1 7.11961 -3.80237 -0.0424904 
1 7.1704 -1.84783 -1.82916 
1 7.15867 -1.91988 1.85327 
1 5.48898 -3.67565 -1.76057 
1 5.49978 -3.55203 1.75602 
2 5.44868 -1.79034 0.0130353 
1 7.15254 0.0240483 0.190979 
1 5.62246 -0.00923648 -1.75453 
1 10.7613 -3.70879 -0.0485511 
1 10.7487 -1.85804 1.66921 
1 10.6584 -1.70268 -1.60693 
1 9.03992 -3.55032 -1.74306 
1 8.99824 -3.62347 1.72804 
2 8.79471 -1.8929 0.0925802 
1 12.3053 -3.43127 -1.72836 
2 12.3546 -3.65608 1.74574 
1 12.5203 -1.60533 0.0866524 
2 14.1617 -3.41248 0.00299372 
1 14.1979 -1.80484 1.74805 
1 14.4317 -1.67706 -1.69379 
2 -5.5649 -12.431 3.77149 
2 -3.63585 -14.0511 3.63322 
1 -0.0698675 -14.2185 3.67984 
2 -3.54351 -12.4185 5.38384 
1 3.36634 -14.1328 3.69434 
1 3.41437 -12.5491 5.40114 
2 -0.0510971 -12.3773 5.40101 
1 -11.2556 -9.349 2.99415 
1 -10.7536 -8.98601 5.56382 
2 -9.0369 -8.80824 3.52662 
2 -8.82016 -10.5818 5.43934 
1 -7.31394 -10.6173 3.69811 
1 -5.3575 -10.5804 5.37263 
1 -7.10406 -8.86202 5.46732 
2 -5.48367 -8.86419 3.53773 
1 -1.79243 -12.5259 3.58782 
1 -1.77003 -10.5176 5.50628 
1 -3.52841 -10.7615 3.58169 
2 -3.56887 -8.8512 5.36056 
1 -1.80436 -8.91521 3.68051 
1 -0.0993425 -8.76414 5.52161 
1 -0.0876498 -10.5049 3.57056 
1 1.5762 -12.3922 3.67488 
1 1.66332 -10.5437 5.41349 
2 3.35464 -10.7075 3.68379 
1 3.59859 -8.89873 5.30417 
1 1.76464 -8.91166 3.70404 
1 5.30851 -12.5362 3.37553 
1 7.2125 -10.8954 3.83105 
1 5.26148 -10.8447 5.35154 
2 7.17362 -9.07744 5.49085 
2 5.28265 -8.96431 3.49941 
1 9.06904 -10.5357 5.40231 
2 8.88982 -8.90454 3.51101 
2 10.6603 -8.64558 5.4906 
1 -12.5333 -5.29095 3.66337 
1 -10.7223 -7.06261 3.86001 
1 -10.7598 -5.24156 5.35877 
1 -8.94459 -7.14392 5.53824 
1 -8.97878 -5.48862 3.67424 
1 -7.22825 -7.20632 3.75402 
1 -7.22742 -5.42614 5.53018 
1 -5.38662 -7.13563 5.42574 
2 -5.35495 -5.45612 3.68705 
1 -1.91414 -7.14815 5.49716 
1 -3.50854 -7.12737 3.55614 
1 -3.54954 -5.36154 5.41019 
2 -1.71111 -5.20666 3.55184 
2 -0.00397556 -5.6184 5.43348 
1 -0.058976 -7.21494 3.4507 
1 1.82686 -7.29396 5.35815 
1 3.50236 -7.24429 3.47155 
1 3.60448 -5.44104 5.25213 
1 1.67276 -5.41504 3.5318 
1 7.2139 -7.17296 3.63378 
1 5.27649 -7.23669 5.34577 
2 7.22103 -5.41545 5.19925 
2 5.34965 -5.39928 3.54195 
1 10.741 -7.14775 3.64509 
1 10.7049 -5.37994 5.38441 
1 8.95365 -7.10999 5.4232 
1 9.07777 -5.48928 3.58737 
2 12.4095 -5.34695 3.58886 
1 -14.0539 -3.39991 3.67482 
1 -12.5276 -3.42537 5.51199 
1 -12.388 -0.156073 5.63493 
1 -12.2893 -1.6726 3.55984 
1 -10.7776 -1.84596 5.47107 
1 -10.7522 -3.64755 3.57952 
1 -9.06096 -3.58568 5.45807 
2 -9.03547 -1.74545 3.69106 
1 -7.11162 -1.71567 5.52851 
2 -7.14349 -3.54967 3.77987 
1 -5.2624 -3.50882 5.40689 
1 -5.36075 -1.74466 3.61294 
2 -3.59392 -1.71141 5.41344 
2 -1.74947 -3.58367 5.48062 
1 -3.56227 -3.53205 3.57351 
1 -1.79424 -1.76284 3.66194 
1 -0.0632457 0.027968 3.58389 
1 3.52985 -0.0775003 3.53152 
1 1.86455 -0.00761187 5.33808 
1 0.0376141 -3.44147 3.62598 
1 0.123716 -1.68611 5.38583 
1 1.77877 -3.58792 5.31984 
1 3.5496 -1.8324 5.25465 
1 3.5083 -3.58568 3.65813 
1 1.67391 -1.71888 3.64217 
1 7.17584 -1.78039 5.30568 
1 7.24569 -3.49992 3.54038 
1 5.39742 -3.49348 5.32454 
1 5.33444 -1.87157 3.60518 
2 10.775 -1.8863 5.48745 
1 10.6757 -3.60061 3.55076 
2 8.89024 -3.63692 5.49908 
1 9.07851 -1.80534 3.44177 
1 12.7795 -3.67276 5.40238 
2 12.4702 -1.82435 3.56426 
1 14.2075 -3.58514 3.37782 
1 1.69477 -12.3627 7.22078 
1 -8.83854 -8.74264 7.25218 
1 -5.18326 -9.01563 10.7781 
1 -5.20332 -10.67 8.86993 
1 -6.97143 -10.7782 7.17057 
2 -7.08034 -8.81376 8.9258 
1 -5.32831 -8.92708 7.24394 
1 -1.86284 -12.57 7.16543 
2 -1.81565 -8.88197 10.6279 
1 -1.79889 -10.7284 8.86429 
1 -3.55749 -10.6645 7.21136 
1 -3.56756 -8.9264 8.93868 
1 -1.81162 -8.84113 7.38808 
1 -0.0854366 -10.5713 7.13678 
1 0.0666687 -9.06132 9.11202 
1 2.23158 -9.02052 10.7091 
1 1.6648 -10.5897 8.93075 
1 3.41756 -10.667 7.07826 
1 3.61949 -8.88545 8.83574 
1 1.79502 -8.80377 7.15177 
1 5.28833 -9.16217 10.4068 
1 5.22555 -10.7444 8.72757 
1 7.05017 -10.8569 7.1348 
1 7.13636 -9.0402 8.6457 
1 5.3353 -8.91468 7.09094 
1 8.9507 -8.83888 7.21818 
1 -10.583 -5.43134 9.11601 
2 -10.7258 -6.97487 7.11542 
1 -8.83718 -7.17741 9.10246 
1 -8.98192 -5.27607 7.22356 
1 -8.67246 -5.28302 10.7167 
1 -5.4886 -5.38425 11.0948 
1 -6.93218 -7.28016 10.7611 
1 -7.07371 -5.55889 8.98213 
1 -5.25434 -7.15926 8.94586 
1 -7.09582 -7.10436 7.14043 
1 -5.36312 -5.27459 7.07316 
2 -3.60096 -7.04034 10.833 
1 -1.84471 -5.16418 10.8324 
1 -1.77197 -7.13226 9.02482 
2 -3.63404 -5.36253 8.97788 
1 -3.60488 -7.03778 7.29113 
1 -1.82003 -5.36092 7.20263 
1 0.052632 -7.07626 10.6036 
1 -0.0759918 -7.24028 7.36354 
2 0.0378152 -5.33467 9.12303 
1 3.83803 -7.08501 10.8169 
1 1.89553 -5.27794 10.6756 
1 1.94449 -7.18937 9.03661 
1 3.62137 -5.16401 9.0178 
1 3.56152 -7.08191 7.11223 
2 1.81585 -5.39479 7.13339 
1 6.83755 -7.11129 10.521 
1 5.38186 -5.19754 10.734 
1 5.29326 -7.12147 8.78559 
1 7.0335 -5.31358 9.04002 
1 7.13242 -7.17839 7.1374 
2 5.40902 -5.39292 7.03153 
1 10.5889 -5.15801 9.06945 
1 8.63529 -5.21678 10.7504 
1 10.7406 -6.95653 7.34607 
1 8.86345 -7.08216 8.98752 
1 8.83644 -5.33083 7.28953 
2 -12.1521 -1.85862 7.68594 
1 -9.13998 -1.8413 10.6708 
1 -10.9893 -3.11371 9.71318 
2 -10.8131 -3.77166 7.2554 
1 -8.78135 -3.67034 8.99006 
2 -9.11867 -1.74587 7.42752 
1 -11.0286 -0.817187 9.64241 
1 -7.12411 -3.48088 10.8714 
1 -5.45512 -1.57827 10.8295 
1 -7.14277 -1.73271 9.04292 
2 -5.45128 -3.55733 9.02833 
1 -7.20137 -3.57706 7.14979 
1 -5.46081 -1.77409 7.27415 
1 -7.32973 0.0650394 10.7837 
1 -3.67094 -3.41703 10.763 
1 -1.74708 -1.71286 10.7355 
1 -3.70195 -1.80782 8.92906 
2 -1.93118 -3.49843 8.94981 
1 -3.6935 -3.41644 7.17302 
1 -1.82955 -1.87361 7.23312 
1 0.0396286 -1.74761 8.99711 
1 -3.58316 0.0154668 10.8161 
1 0.0463994 -3.42701 10.6721 
1 3.60482 0.0625192 7.09581 
2 0.167649 -3.52572 7.28999 
2 3.54339 -3.49274 7.11293 
1 1.86727 -1.79946 7.18096 
1 3.65596 -3.41786 10.6866 
1 1.91995 -1.74769 10.5786 
1 1.93402 -3.53815 8.99349 
1 3.62814 -1.83053 8.9011 
1 0.0311776 0.00749394 10.6044 
1 3.5565 -0.00155192 10.7387 
1 1.87859 -0.0374907 8.8738 
1 5.42198 -3.55074 8.9308 
1 5.37209 -1.49476 10.5648 
1 5.33828 -1.66922 7.08576 
1 7.03134 -3.54599 7.15279 
1 7.14656 -3.35829 10.6708 
1 7.06317 -1.66726 8.88824 
1 5.20444 0.0392417 8.88211 
1 7.14864 0.15498 10.5701 
1 10.7946 -3.85787 7.18801 
1 8.72677 -1.72032 7.22879 
2 10.6852 -1.86173 8.84879 
1 8.91626 -1.59367 10.7569 
1 8.87602 -3.50956 8.93455 
1 10.3925 -3.51155 10.8556 
2 9.02264 0.115095 8.8408 
2 12.5285 -1.87323 7.13445 
1 0.058196 -8.8709 12.0445 
1 -1.53041 -7.1036 12.4642 
1 -1.56861 -5.28768 14.049 
1 -3.60965 -5.13037 12.5786 
1 0.0685835 -5.24816 12.3187 
1 1.77216 -5.15541 14.0541 
1 3.70208 -5.18828 12.4239 
2 1.84449 -6.96332 12.3578 
1 -5.40735 -3.42186 12.5632 
1 -7.44264 -1.78568 12.3791 
1 -5.60348 -0.0855119 12.7664 
1 0.100539 -0.268812 14.2746 
1 -3.61862 -1.67904 12.6574 
1 -1.68469 -3.43376 12.4835 
1 -1.74696 -1.69394 14.1584 
1 0.155831 -1.65181 12.3347 
1 -1.64305 -0.0763318 12.446 
2 0.0679773 -3.37919 14.0671 
1 3.55298 -1.55335 12.565 
1 1.81954 -3.51045 12.3428 
1 1.96324 -1.87651 14.1925 
1 1.71 0.11681 12.5341 
1 3.5276 0.106003 14.2227 
1 5.22948 0.19137 12.4972 
2 5.35048 -3.2571 12.3438 
1 6.9331 -1.46656 12.4909 
1 -7.1918 1.57647 -12.4655 
1 -5.51494 3.44602 -12.5779 
2 -3.23308 3.78025 -14.2321 
2 -1.77443 1.7521 -14.462 
2 -3.61349 1.8243 -12.6152 
1 -1.86115 3.79988 -12.4343 
1 -0.216119 3.65545 -14.3789 
2 -0.179753 1.96846 -12.4738 
1 -3.76498 -0.0717636 -14.3104 
1 3.59277 3.18923 -14.2433 
1 3.56515 1.83154 -12.356 
2 1.84783 3.60416 -12.5813 
1 1.53168 1.84907 -14.5324 
2 3.61749 0.279369 -14.3782 
2 1.82911 0.0159541 -12.4771 
1 5.5696 1.81419 -14.0607 
1 7.42141 1.85997 -12.513 
1 5.43888 3.62979 -12.4198 
2 5.36025 0.0408063 -12.4872 
1 -1.84491 6.93259 -12.432 
1 -3.74197 5.52994 -12.5797 
1 -0.0543312 5.37078 -12.6696 
1 1.85203 6.97271 -12.4082 
1 3.67338 5.26356 -12.367 
1 -12.4931 1.64299 -7.31948 
1 -9.03824 1.44608 -10.7852 
1 -10.6069 1.70674 -9.01787 
2 -8.94927 3.64376 -9.02437 
2 -8.89338 1.76505 -7.2912 
1 -10.7489 3.55993 -7.17442 
1 -10.7647 -0.175702 -10.5219 
1 -7.30354 3.55302 -10.8158 
2 -5.3684 1.63812 -10.7319 
2 -7.19332 1.61789 -9.07823 
1 -5.40002 3.52972 -9.00962 
1 -7.23907 3.53452 -7.21671 
2 -5.39152 1.6833 -7.15977 
1 -3.60654 3.65822 -10.7655 
1 -2.0147 1.76768 -10.667 
1 -3.5535 1.62544 -8.92335 
2 -1.88449 3.6399 -8.83578 
2 -3.63944 3.49739 -7.03189 
1 -1.76789 1.7743 -7.18221 
1 -0.177658 1.91256 -9.00081 
1 0.0594134 3.63192 -7.10283 
1 -0.0777542 3.67294 -10.7253 
1 3.70246 3.60544 -10.6203 
1 1.75003 1.94843 -10.6807 
1 3.56794 1.76291 -9.00924 
2 1.76324 3.63697 -9.04875 
1 3.56911 3.60784 -7.11906 
2 1.78186 1.70711 -7.1689 
2 7.07517 3.65518 -10.6518 
1 5.39408 1.86244 -10.7048 
1 7.2672 1.8216 -8.91598 
1 5.41972 3.52502 -8.80207 
1 7.1013 3.46793 -7.07764 
1 5.2518 1.80903 -7.23252 
2 5.42777 0.0648968 -8.98966 
1 9.09755 1.86999 -10.854 
2 10.5597 2.0553 -9.02625 
1 10.641 3.63746 -7.06389 
1 8.85897 3.5594 -8.98062 
1 8.91635 1.80015 -7.08655 
2 12.408 1.77215 -7.09718 
2 10.6781 0.0316358 -7.34742 
1 -10.7325 5.4031 -8.88621 
1 -10.7878 7.15424 -7.02623 
1 -8.91302 7.24377 -8.77065 
1 -8.9374 5.30966 -7.09067 
1 -8.72144 5.51312 -10.7136 
1 -7.11842 7.27171 -10.6359 
2 -5.50506 5.31259 -10.8459 
1 -7.20129 5.41631 -8.89538 
1 -5.46868 7.10581 -8.90424 
2 -7.10136 7.16157 -7.12434 
1 -5.51404 5.34756 -7.11909 
2 -3.62274 7.22961 -10.7085 
1 -1.87482 5.38137 -10.6687 
1 -1.91798 7.18005 -8.78841 
2 -3.6222 5.32891 -8.78377 
1 -3.75128 6.97167 -7.09305 
1 -1.73322 5.4724 -7.07365 
1 -0.0335867 7.20783 -7.05951 
1 -0.0806499 7.13387 -10.6676 
2 -0.0471915 5.40049 -8.91603 
1 3.58678 7.14881 -10.7394 
1 1.78199 5.27 -10.8466 
2 1.81844 7.05516 -8.95391 
1 3.48076 5.44719 -8.97028 
1 3.58476 7.07999 -7.15681 
1 1.7032 5.37566 -7.08165 
1 7.14329 7.0074 -10.5413 
1 5.28135 5.4168 -10.639 
1 7.07406 5.24796 -8.8593 
1 5.28718 7.13597 -8.97309 
1 7.07469 7.0077 -7.25724 
1 5.3441 5.2584 -7.20911 
1 8.90449 5.34627 -10.5835 
1 10.5843 5.19051 -8.88837 
2 10.7064 6.94144 -7.04665 
1 8.92642 7.10739 -8.94102 
1 8.82974 5.29737 -7.19778 
1 -8.85094 8.95536 -6.93326 
1 -5.31497 9.12135 -10.6538 
1 -5.39902 10.6274 -8.7825 
1 -7.07551 8.9793 -8.79073 
1 -5.4672 8.99046 -6.92144 
1 -7.16158 10.6834 -6.89613 
2 -1.76361 8.84832 -10.6384 
2 -2.14404 10.5836 -8.78247 
1 -3.80055 10.6254 -7.06443 
1 -3.80933 8.76399 -8.80776 
1 -2.01769 8.81467 -7.04662 
1 -0.419297 12.2413 -8.86256 
1 -0.217118 8.85292 -8.77271 
1 -0.3093 10.5677 -7.08815 
1 -1.96788 12.574 -7.00262 
1 1.68777 8.82436 -10.6052 
1 1.54184 10.556 -8.88632 
1 3.40015 10.7286 -7.31136 
1 3.54732 8.77526 -8.89214 
1 1.75145 8.78247 -7.1226 
2 1.48418 12.5239 -7.23019 
1 5.31372 8.93549 -10.5317 
1 5.32227 10.6445 -8.84496 
1 7.11717 10.5709 -7.06297 
1 7.09282 8.77848 -8.76778 
1 5.21895 8.89098 -7.116 
1 8.9481 8.71877 -7.14667 
2 -14.035 3.52414 -3.45152 
1 -14.2615 0.0150437 -3.48918 
2 -12.5734 3.46182 -5.429 
1 -12.4407 1.72522 -3.48852 
2 -10.7246 1.84823 -5.30257 
1 -10.6984 3.61003 -3.42062 
1 -8.88824 3.57619 -5.38816 
2 -8.88345 1.82008 -3.55408 
1 -7.13822 1.75798 -5.31557 
2 -7.14856 3.59216 -3.47202 
1 -5.45177 3.59811 -5.37234 
1 -5.41439 1.81176 -3.67915 
1 -3.52608 1.66501 -5.31883 
1 -1.84052 3.52127 -5.32584 
1 -3.66257 3.47154 -3.59176 
1 -1.90066 1.71936 -3.53796 
1 -0.0594884 1.75243 -5.27535 
1 -0.0433973 3.4226 -3.54472 
1 3.62101 1.7542 -5.36713 
2 1.66156 3.54449 -5.3729 
1 3.52827 3.58349 -3.6371 
2 1.90156 1.64707 -3.52126 
1 3.6682 0.00864989 -3.54977 
1 7.21084 1.70473 -5.25301 
1 7.12169 3.63832 -3.62209 
1 5.32865 3.5498 -5.45645 
1 5.28999 1.85553 -3.59088 
1 10.7746 1.59887 -5.29553 
1 10.6723 3.51571 -3.5022 
2 8.98154 3.43005 -5.37021 
1 9.05599 1.75605 -3.54571 
1 12.3525 3.65195 -5.26102 
1 8.98574 -0.0613838 -5.28366 
1 10.5888 -0.0751022 -3.42643 
1 12.3606 1.70921 -3.45336 
1 14.1269 3.3121 -3.57323 
1 -12.4962 5.54649 -3.86002 
1 -10.7167 7.14004 -3.48819 
1 -10.7555 5.31176 -5.42772 
2 -8.97759 7.02152 -5.25755 
1 -8.9819 5.30233 -3.48721 
1 -7.22434 7.08737 -3.50193 
1 -7.10451 5.30943 -5.26528 
1 -5.40991 7.02523 -5.18771 
1 -5.42628 5.39728 -3.5144 
1 -1.86509 7.06334 -5.33638 
1 -3.46118 7.0517 -3.49843 
1 -3.63731 5.33694 -5.31295 
1 -1.67094 5.2953 -3.64155 
1 -0.0860696 5.28704 -5.33718 
2 -0.069376 7.17922 -3.59161 
1 1.68223 7.10156 -5.30274 
2 3.33993 7.16434 -3.51656 
1 3.62212 5.31828 -5.42466 
1 1.65296 5.38192 -3.5953 
1 7.15164 7.13311 -3.61002 
1 7.07656 5.21197 -5.33662 
2 5.3434 7.14323 -5.39166 
1 5.44776 5.25473 -3.54577 
1 10.6309 7.09665 -3.53349 
1 10.7476 5.37563 -5.25081 
1 8.72783 7.03467 -5.42525 
1 8.86401 5.39712 -3.68385 
2 12.4887 5.26293 -3.37909 
1 -9.08531 10.702 -5.13736 
1 -10.7353 8.90613 -5.29915 
1 -9.03445 8.77828 -3.51877 
1 -10.6774 10.4874 -3.4417 
1 -7.36284 10.7857 -3.57229 
1 -5.37705 10.8336 -5.13456 
1 -7.13467 8.93809 -5.18104 
1 -5.51425 8.85823 -3.59298 
1 -1.92175 10.6919 -5.27494 
1 -3.72643 10.7236 -3.55057 
2 -3.69535 8.908 -5.22939 
1 -1.87906 8.9694 -3.60021 
1 -0.216215 8.94237 -5.41289 
1 -1.78642 12.5699 -3.72057 
1 -0.0498458 10.7701 -3.6737 
2 1.67132 10.6722 -5.44364 
1 3.38419 10.6785 -3.65201 
1 3.41112 8.85711 -5.31809 
1 1.52712 9.00559 -3.58259 
1 1.77664 12.3561 -3.66437 
1 7.13227 10.8498 -3.80578 
2 5.16579 10.6654 -5.58463 
1 7.20565 8.92758 -5.2714 
2 5.35139 9.01392 -3.57219 
1 10.5594 8.58901 -5.36045 
1 8.90731 10.5986 -5.41181 
1 8.9604 8.90199 -3.63691 
1 -5.57661 12.4225 -3.36513 
1 -3.70121 12.5244 -5.17939 
2 -3.68176 14.1253 -3.31861 
1 -0.171639 12.7047 -5.40402 
1 0.167129 14.345 -3.65216 
1 3.37793 12.5062 -5.5507 
2 3.0446 14.1538 -3.94143 
1 5.17298 12.5052 -3.78088 
1 -14.288 3.22832 0.121567 
1 -14.1591 1.76176 -1.84569 
1 -14.3739 1.48817 1.95038 
2 -12.5615 3.35455 1.8752 
1 -12.5068 1.73269 -0.0251705 
1 -12.4433 3.56107 -1.58994 
1 -10.6494 0.0442046 -0.00607121 
2 -10.6132 3.53222 0.0152378 
1 -10.685 1.72579 -1.78671 
1 -10.6583 1.76763 1.86419 
1 -8.81216 3.53921 -1.70228 
1 -8.87678 3.53164 1.82803 
1 -8.84499 1.74014 0.0065132 
2 -8.86207 -0.00143068 1.74081 
2 -12.3741 0.116506 1.83533 
1 -8.93606 -0.0585022 -1.79131 
1 -12.3377 0.0704047 -1.63838 
1 -7.08445 3.54763 0.021931 
1 -7.07212 1.80686 -1.66176 
1 -7.18926 1.85668 1.82068 
1 -5.37675 3.4081 -1.81512 
1 -5.48527 3.51022 1.78332 
1 -5.32695 1.75291 -0.0382347 
2 -5.45554 0.0247373 1.68543 
1 -5.17597 0.0208145 -1.77749 
1 -7.19284 -0.0568082 -0.068545 
2 -3.63644 3.47468 -0.0117552 
1 -3.54056 1.7283 -1.82797 
2 -1.71195 3.57703 -1.9213 
1 -3.53888 1.7204 1.76099 
1 -1.79211 3.58202 1.69945 
1 -1.78163 1.74811 -0.0739369 
1 0.104397 1.64037 -1.76551 
1 -3.47788 -0.0236233 -0.0476863 
1 0.0813037 3.53183 -0.0160147 
1 -1.89019 -0.0609224 -1.79224 
1 -1.72932 0.0300969 1.76982 
1 -0.0412756 1.89551 1.77496 
2 3.59495 3.54704 0.00488752 
1 3.75686 1.7108 -1.78987 
2 1.74737 3.71922 -1.74004 
1 3.60006 1.68181 1.8263 
1 1.75155 3.59619 1.8841 
2 1.75881 1.739 0.0867672 
1 7.05223 3.58674 0.000432156 
1 7.2026 1.82361 -1.88591 
1 7.21558 1.81868 1.97601 
1 5.37031 3.59252 -1.89706 
1 5.50593 3.50758 1.91762 
2 5.55095 1.75466 0.0133993 
1 5.36846 -0.183213 1.94132 
1 10.6812 3.6494 0.0116101 
1 10.7966 2.00755 1.71491 
2 10.8022 1.87541 -1.57757 
1 8.81395 3.55869 -1.72451 
1 8.81697 3.65817 1.75824 
1 8.83135 1.9305 0.0990761 
2 8.88274 0.0849357 1.88979 
1 12.5229 1.89172 0.120512 
1 12.6753 3.87709 1.68562 
1 10.5477 0.0724025 0.0968996 
1 12.6212 3.51793 -1.74348 
1 12.5441 0.0942479 1.71739 
2 12.4776 -0.0300037 -1.57078 
1 8.84374 -0.0238515 -1.71929 
1 14.3172 3.57334 -0.174723 
1 14.3873 1.83811 1.67202 
2 14.3302 1.55635 -1.70746 
1 14.5691 -0.0422856 0.174256 
1 -12.7317 5.19773 0.000310801 
1 -12.6098 6.89711 -1.68856 
1 -12.4457 7.0122 1.60292 
1 -10.7409 6.91821 -0.0764062 
1 -10.7876 5.27213 -1.83294 
1 -10.9012 5.17833 1.86201 
1 -8.90313 7.06904 -1.68802 
2 -8.95531 6.96595 1.69706 
1 -8.85911 5.25102 0.0425066 
1 -7.13722 7.10388 -0.104488 
1 -7.23182 5.32446 -1.74174 
2 -5.35363 7.11412 -1.83217 
1 -7.03992 5.36577 1.73954 
1 -5.34524 7.04268 1.78905 
1 -5.30673 5.23843 -0.070989 
1 -3.59523 7.10948 0.0913886 
1 -1.91343 7.07301 -1.68989 
1 -1.7826 7.20168 1.93311 
1 -3.5571 5.34484 -1.82287 
1 -3.65311 5.32724 1.76465 
2 -1.76342 5.34683 0.0612021 
1 -0.0167539 7.18137 0.0364174 
1 -0.0120146 5.26013 1.8057 
1 -0.0744491 5.55653 -1.70874 
1 3.54716 7.14293 0.0259727 
1 1.77693 7.11225 -1.68925 
2 1.77898 7.10619 1.76073 
1 3.49176 5.36872 -1.79706 
2 3.69359 5.34387 1.84556 
1 1.76976 5.39517 0.0422326 
1 7.03155 7.1371 -0.0908718 
1 7.20574 5.4124 -1.81156 
2 5.30723 7.04871 -1.78825 
1 7.15565 5.44124 1.84237 
1 5.38082 7.29392 1.72734 
1 5.42069 5.2958 0.0159453 
1 10.7296 7.05356 -0.180846 
1 10.6233 5.44827 1.72337 
1 10.5611 5.27524 -1.77226 
1 8.90835 7.15493 -1.79848 
2 8.93536 7.28635 1.55465 
1 8.774 5.36496 -0.00124472 
2 12.3207 6.99474 1.591 
1 12.4199 7.2402 -1.81874 
1 12.5479 5.34378 -0.215652 
2 -9.09703 10.6605 -1.54884 
1 -9.04424 10.6638 1.69548 
2 -10.8231 8.68785 -1.66874 
1 -10.8112 8.86809 1.42799 
1 -8.90268 8.72597 -0.0788627 
1 -7.09813 10.5522 0.0561966 
1 -5.3731 10.5688 1.69456 
1 -5.45452 10.4559 -1.75586 
1 -7.25657 8.90495 -1.84634 
1 -7.23412 8.82269 1.67901 
1 -5.3586 8.78048 0.00238925 
1 -7.18772 12.2266 1.59291 
1 -7.38157 12.4129 -1.6852 
1 -3.42904 12.3254 -1.91983 
1 -3.59854 10.6756 -0.156986 
2 -1.70628 10.6141 1.7665 
1 -1.7763 10.7381 -1.84159 
1 -3.57365 8.87738 -1.83438 
2 -3.63768 8.94319 1.86404 
1 -1.85349 8.90547 -0.0104909 
1 -1.73337 12.5132 -0.19049 
1 -0.0334416 8.83257 1.71285 
1 0.148294 10.7146 -0.0283086 
2 -0.133535 9.03837 -1.69306 
1 3.70085 10.8092 -0.154228 
1 1.69823 10.6082 1.6862 
1 1.77054 10.6239 -1.83563 
1 3.35443 9.03872 -1.86745 
1 3.58336 8.91429 1.66428 
1 1.84605 8.95884 -0.0614982 
2 1.91303 12.4417 0.0141224 
1 3.71245 12.5423 1.66066 
1 7.19791 10.7655 -0.0993606 
1 5.31915 10.7597 1.82062 
2 5.50142 10.8473 -1.88299 
1 7.24526 8.89071 -1.87027 
1 7.17223 9.10783 1.71044 
2 5.4007 9.03448 -0.0404671 
2 10.7918 9.05986 1.34585 
2 8.99648 10.848 1.70417 
1 10.6586 8.9235 -1.81689 
1 8.82648 10.7602 -2.05103 