ITEM: TIMESTEP
1090000
ITEM: NUMBER OF ATOMS
1289
ITEM: BOX BOUNDS pp pp pp
-100 100
-100 100
-100 100
ITEM: ATOMS type x y z 
1 -1.83185 -7.15015 -12.3173 
1 -3.53252 -5.27782 -12.465 
1 -0.0381243 -5.28336 -12.4122 
1 1.61405 -7.09614 -12.3659 
1 3.38516 -5.17362 -12.4399 
1 -7.04159 -1.63459 -12.3468 
2 -5.52949 -3.53074 -12.3871 
1 -5.34281 -0.0961565 -12.5017 
2 -1.86477 -1.89094 -13.9753 
2 -3.77351 -1.79709 -12.3996 
1 -1.84583 -3.56815 -12.2313 
1 -0.046549 -1.65621 -12.2255 
1 -0.125186 -3.66036 -13.9178 
2 3.39269 -3.2612 -14.1827 
1 1.70607 -3.44759 -12.2909 
1 3.47255 -1.72336 -12.3902 
1 1.53435 -1.87538 -14.2286 
1 5.40591 -1.69137 -14.3653 
2 7.12571 -1.80697 -12.4339 
2 5.24716 -3.48585 -12.3592 
1 -1.93263 -12.6788 -6.88239 
1 -8.85189 -8.86652 -7.15128 
2 -5.37681 -10.6699 -8.86719 
1 -5.49379 -8.91675 -10.7605 
1 -7.03382 -10.5804 -7.04951 
1 -7.24041 -8.90391 -8.92096 
1 -5.31356 -8.89839 -7.06447 
1 -2.19048 -10.8638 -8.76333 
1 -1.77081 -9.06027 -10.7177 
1 -3.78834 -10.8105 -6.97089 
2 -3.58837 -8.9004 -8.82176 
1 -1.94055 -9.00382 -7.11907 
2 -0.113515 -10.6897 -7.18007 
1 -0.225495 -10.9758 -9.92286 
1 -0.0751488 -8.86455 -9.0052 
1 1.85728 -12.2528 -6.97684 
2 1.76272 -10.5252 -8.85236 
1 1.87969 -8.96842 -10.8603 
1 3.6658 -10.6809 -7.20913 
2 3.71319 -8.89241 -8.90532 
1 1.92064 -8.83334 -7.12106 
1 5.47677 -10.666 -8.8852 
1 7.23114 -8.88377 -8.98606 
1 5.42231 -8.84388 -7.10814 
1 7.18839 -10.5962 -7.18763 
1 5.44181 -8.66652 -10.6316 
1 8.99925 -9.06413 -7.05879 
1 -10.7218 -5.37437 -8.76475 
1 -9.00498 -5.35087 -10.5038 
1 -9.08285 -7.10326 -8.71079 
2 -9.03315 -5.37687 -6.96537 
2 -10.7822 -7.03864 -6.86775 
1 -7.20553 -7.09406 -10.595 
1 -5.55398 -5.48488 -10.9734 
1 -7.07467 -5.32807 -8.85311 
1 -5.33645 -7.16028 -8.84693 
2 -7.11605 -7.09874 -7.04731 
1 -5.36143 -5.30515 -6.96679 
2 -3.78889 -7.09466 -10.7668 
1 -1.90966 -5.40561 -10.6972 
1 -1.86664 -7.20014 -9.04681 
1 -3.70582 -5.42606 -8.92336 
1 -3.63501 -7.16257 -6.95125 
2 -1.92543 -5.43778 -7.02187 
2 -0.0839694 -7.35524 -7.09002 
1 -0.0546206 -7.31451 -10.7725 
2 -0.089614 -5.50658 -9.04068 
2 3.43968 -7.05045 -10.7141 
1 1.73183 -5.2328 -10.5147 
1 1.73149 -7.28312 -8.958 
1 3.68682 -5.31267 -8.93048 
1 3.63861 -7.1791 -7.12274 
2 1.76775 -5.34714 -7.2464 
1 7.2734 -6.96754 -10.66 
1 5.38115 -5.34443 -10.7793 
1 5.50689 -7.09877 -8.81427 
1 7.13405 -5.27133 -8.90524 
1 7.09982 -7.02185 -6.99452 
1 5.39149 -5.44461 -7.09982 
1 9.0762 -5.18157 -10.6021 
1 10.7361 -5.17452 -8.7568 
1 10.8444 -7.07819 -7.09141 
2 8.99041 -7.09464 -8.70154 
1 8.96735 -5.33135 -7.07035 
1 -12.6403 -1.79348 -6.94494 
1 -10.8185 -1.92177 -8.74715 
1 -8.97865 -1.86475 -10.486 
1 -10.8916 -3.61366 -7.04592 
1 -8.94341 -3.61664 -8.74784 
1 -8.98809 -1.88305 -7.04312 
1 -10.9267 -0.236834 -6.99012 
1 -8.92886 -0.156591 -8.66195 
1 -7.18148 -3.69086 -10.5637 
1 -5.40807 -1.76866 -10.5694 
1 -7.21977 -1.97242 -8.82746 
1 -5.31881 -3.58287 -8.84841 
1 -7.20681 -3.64453 -7.00372 
1 -5.45371 -1.77266 -7.07463 
1 -7.29537 -0.123288 -10.4315 
1 -5.3811 -0.0395976 -8.83129 
1 -3.74334 -3.60216 -10.5472 
1 -1.90663 -1.74149 -10.6009 
1 -3.68533 -1.71356 -8.89161 
2 -1.83539 -3.59128 -8.98527 
1 -3.57288 -3.62853 -7.14829 
1 -1.9067 -1.6812 -7.0965 
1 -0.183632 -3.50762 -7.12263 
1 -0.0768688 -1.84192 -8.96959 
1 -0.0559269 -3.52635 -10.647 
1 -3.69312 0.118016 -10.6452 
1 -1.95662 0.0424385 -9.06416 
1 3.48917 -3.46645 -10.5381 
1 1.70772 -1.76802 -10.538 
1 1.61046 -3.57631 -8.82688 
2 3.56577 -1.73059 -8.78134 
1 3.56584 -3.53811 -7.1358 
1 1.62519 -1.68584 -7.11057 
2 1.78767 0.0259024 -8.88108 
1 3.60657 0.0787875 -7.07924 
1 3.57262 0.0944035 -10.6656 
1 7.12269 -3.72706 -10.8256 
1 5.32648 -1.7965 -10.6208 
1 7.18675 -1.78389 -8.96554 
1 5.46881 -3.58756 -8.98376 
1 7.10048 -3.67706 -7.17525 
1 5.49921 -1.73579 -7.16321 
1 8.89428 -1.91727 -10.7717 
1 10.6658 -3.42822 -7.04816 
1 8.89749 -3.55634 -8.86269 
2 8.7949 -1.70268 -7.02039 
2 10.565 -1.68924 -8.98614 
2 10.5618 0.0694094 -7.12456 
1 12.4919 -1.73308 -7.23796 
1 -5.33874 -12.5818 -3.19247 
1 -1.8958 -14.1942 -5.02951 
1 -3.7651 -12.6111 -4.9604 
2 0.0428604 -14.2304 -3.39916 
1 0.0484756 -12.6245 -5.33627 
1 -10.696 -8.88867 -5.18829 
1 -8.84833 -10.4609 -5.1907 
2 -9.13953 -9.02188 -3.22527 
1 -7.1351 -10.7515 -3.411 
1 -5.43647 -10.7192 -5.12423 
1 -7.06219 -8.8275 -5.29307 
1 -5.42226 -8.88048 -3.53375 
1 -1.81331 -12.5718 -3.40598 
2 -1.90669 -10.8487 -5.20931 
1 -3.67849 -10.7076 -3.46394 
1 -3.6837 -8.88714 -5.29861 
2 -1.8316 -8.805 -3.51124 
1 -0.0374848 -9.02397 -5.34948 
2 -0.0317519 -10.7236 -3.58607 
1 3.60756 -12.3861 -5.43618 
2 1.8354 -12.51 -3.57708 
1 1.78893 -10.6176 -5.35989 
1 3.655 -10.6963 -3.54202 
1 3.70028 -9.0028 -5.39421 
1 1.85411 -9.01311 -3.53779 
1 5.2769 -12.4393 -3.43813 
2 7.05682 -10.7325 -3.42404 
1 5.42641 -10.7475 -5.39965 
1 7.12165 -8.80127 -5.38115 
2 5.3836 -8.91785 -3.5764 
1 8.83059 -10.7274 -5.26186 
2 8.73008 -8.88371 -3.50279 
1 10.6776 -9.00633 -5.12077 
1 -12.5909 -5.46734 -3.5714 
1 -10.8629 -7.0753 -3.42017 
1 -10.7653 -5.2886 -5.21557 
2 -8.89451 -7.13872 -5.0814 
1 -8.87526 -5.1914 -3.5395 
1 -7.04357 -6.96651 -3.52088 
1 -7.21124 -5.27822 -5.30251 
1 -5.41495 -7.10614 -5.33349 
1 -5.35446 -5.30301 -3.64216 
1 -1.89428 -7.16761 -5.35602 
1 -3.77262 -7.11608 -3.45713 
1 -3.62353 -5.34561 -5.22582 
1 -1.84437 -5.41991 -3.55183 
2 -0.0445199 -5.29145 -5.11255 
1 -0.0881226 -7.16559 -3.58733 
2 1.80595 -7.17999 -5.29896 
1 3.62242 -7.16551 -3.63582 
1 3.58372 -5.29434 -5.41755 
1 1.73321 -5.23968 -3.57877 
1 7.13523 -7.02984 -3.58167 
1 5.26919 -7.09387 -5.36649 
1 7.1293 -5.32417 -5.30843 
1 5.32286 -5.3679 -3.61772 
1 10.7417 -7.15401 -3.45816 
1 10.6929 -5.33727 -5.39081 
2 8.95675 -7.12818 -5.41399 
2 8.88496 -5.41229 -3.55229 
1 12.4567 -5.26539 -3.53305 
1 -14.1897 -3.60536 -3.25611 
1 -12.8212 -3.50839 -5.42103 
1 -14.439 0.0261399 -3.44362 
2 -12.5745 -1.74642 -3.44462 
1 -10.896 -1.75271 -5.27734 
2 -10.7931 -3.56424 -3.53645 
1 -9.01529 -3.44606 -5.2681 
2 -8.93723 -1.77392 -3.4198 
2 -9.03374 -0.07316 -5.36089 
2 -7.07916 -1.86629 -5.33959 
1 -7.06786 -3.49238 -3.54897 
1 -5.24275 -3.59684 -5.28796 
1 -5.3721 -1.80612 -3.44185 
1 -5.32127 -0.0833379 -5.17162 
1 -3.66792 -1.71034 -5.36732 
1 -1.90822 -3.57498 -5.27706 
1 -3.52041 -3.56223 -3.54898 
1 -1.83831 -1.76437 -3.67584 
1 -0.0313273 -1.76141 -5.42301 
1 -0.0383003 -3.47685 -3.56424 
1 -3.57027 0.0104632 -3.46082 
1 -0.094816 0.0318246 -3.54564 
1 1.79973 -3.54892 -5.56417 
1 3.52165 -1.84797 -5.43726 
1 3.47425 -3.61322 -3.64727 
2 1.6501 -1.74663 -3.70996 
1 1.83511 0.00136177 -5.43583 
1 7.11042 -1.74151 -5.18169 
1 7.08206 -3.52291 -3.46325 
1 5.50084 -3.48248 -5.40566 
1 5.24762 -1.69143 -3.61253 
1 10.6771 -1.69822 -5.30332 
1 10.5717 -3.5528 -3.5837 
1 8.86671 -3.57309 -5.38227 
1 8.92037 -1.72375 -3.61996 
1 12.2125 -1.6267 -3.58035 
2 12.4372 0.111845 -5.34132 
2 12.3668 -3.49271 -5.20283 
2 14.019 -3.13116 -3.24855 
2 14.1731 -0.142153 -3.63075 
1 -5.35729 -12.8651 0.154825 
1 -3.44477 -14.2365 0.334558 
1 -1.63069 -14.2914 -1.53344 
1 -1.16214 -14.46 1.06175 
1 -3.53021 -12.6389 -1.57605 
1 0.883358 -14.7339 -0.667877 
1 2.69437 -14.5339 -2.29392 
1 3.58983 -14.4376 0.15231 
2 1.43019 -14.2277 1.73301 
1 5.09859 -14.2487 -1.95115 
1 5.23957 -12.6377 0.10038 
1 -10.816 -10.6914 0.146493 
1 -11.0179 -8.87599 -1.51909 
1 -9.0694 -10.8052 -1.64294 
2 -8.88186 -10.8464 1.74836 
1 -8.92216 -8.8856 -0.119594 
2 -10.7266 -8.80394 1.69616 
2 -7.25199 -12.5282 1.53157 
2 -7.16976 -12.4312 -1.53967 
1 -7.29516 -10.5564 -0.0785 
2 -5.30631 -10.7737 -1.58776 
2 -5.39398 -10.6383 1.59659 
1 -7.00911 -8.79628 -1.77033 
1 -7.20428 -8.85245 1.64399 
1 -5.33515 -8.87235 -0.0875749 
1 -3.54137 -12.2798 1.59217 
1 -1.7813 -12.3628 0.117687 
1 -3.50148 -10.6006 0.00382431 
1 -1.96894 -10.6982 -1.77382 
1 -1.83462 -10.5925 1.85532 
1 -3.60793 -8.90773 -1.8239 
1 -3.31387 -8.83012 1.79464 
1 -1.73669 -8.95476 -0.0722054 
1 -0.0653814 -12.2805 1.72653 
1 -0.0501332 -8.97878 -1.82971 
1 -0.00319844 -10.5589 0.0467805 
1 -0.0916113 -8.98779 1.82197 
2 -0.112078 -12.4287 -1.56639 
2 1.94345 -12.633 -0.105203 
1 3.4314 -12.4507 1.8755 
1 3.59175 -12.412 -1.80535 
1 3.60978 -10.7332 0.0763194 
1 1.89773 -10.688 -1.62375 
1 1.74268 -10.7183 1.76649 
1 3.62563 -8.76966 -1.78378 
1 3.50617 -8.9205 1.73755 
1 1.8143 -8.95261 -0.0824607 
1 7.01844 -12.2817 1.80325 
2 7.04709 -12.4781 -1.58157 
1 6.78319 -10.7203 -0.0314638 
1 5.18953 -10.6784 -1.75969 
1 5.20971 -10.8013 1.7177 
1 7.11883 -8.9917 -1.67015 
2 7.11464 -9.12 1.83944 
1 5.28775 -8.90117 -0.000312669 
1 9.14592 -10.8284 -2.10247 
1 8.81245 -12.1076 0.1651 
1 10.6001 -8.97803 -1.82715 
1 10.6851 -9.05766 1.58395 
2 8.8159 -9.30864 -0.0710023 
1 9.08177 -10.8679 2.18363 
1 -12.488 -6.9 -1.76268 
1 -12.6201 -5.33841 0.135015 
2 -10.727 -7.0485 -0.0163518 
1 -10.5716 -5.26643 -1.84195 
1 -10.6615 -5.42252 1.82988 
1 -8.91586 -7.07561 -1.89311 
1 -8.90481 -7.20682 1.63707 
1 -8.8974 -5.49965 -0.0791385 
1 -7.07853 -7.15831 -0.23361 
1 -7.05942 -5.27734 -1.75356 
1 -5.27932 -7.04946 -1.74153 
2 -6.96219 -5.5294 1.59774 
1 -5.24368 -7.28447 1.68932 
1 -5.21098 -5.31302 -0.0154858 
1 -3.47892 -7.1839 -0.0236566 
1 -1.80212 -7.08341 -1.72142 
1 -1.71491 -7.12411 1.63878 
1 -3.48126 -5.39019 -1.83602 
1 -3.52831 -5.40364 1.7323 
2 -1.63758 -5.21992 0.0709994 
1 0.0803493 -5.33441 -1.849 
1 -0.0750881 -7.15182 -0.0403224 
1 0.0612679 -5.34034 1.77275 
1 3.60115 -7.14541 0.0317874 
2 1.73737 -7.12058 -1.78628 
1 1.68242 -7.27957 1.71078 
2 3.63777 -5.44756 -1.81381 
1 3.55049 -5.47081 1.75037 
1 1.72227 -5.51389 0.171508 
1 7.11304 -7.26457 0.0261931 
1 5.46017 -7.11807 -1.87592 
1 7.04349 -5.38112 -1.71395 
1 5.37094 -7.18558 1.73079 
2 7.20416 -5.46937 1.74623 
1 5.4018 -5.48731 -0.0566558 
1 10.6034 -7.14039 -0.160256 
1 10.4296 -5.53668 1.62977 
1 10.6067 -5.33738 -1.79118 
1 8.90706 -7.15771 -1.88024 
1 8.92985 -7.36935 1.53838 
1 8.81888 -5.35706 -0.129452 
1 12.4899 -7.22982 -1.85603 
2 12.3519 -5.37275 -0.0970439 
1 12.3972 -7.07753 1.69812 
1 -14.2967 -3.41729 0.240022 
2 -14.2495 -1.84318 -1.65017 
1 -14.3839 -1.6774 1.93161 
1 -12.5311 -3.66967 -1.57487 
1 -12.3658 -1.81118 0.0692231 
1 -14.2995 -0.0771415 0.0630703 
1 -12.4024 -3.44636 1.78379 
1 -10.6727 -3.69154 -0.0571801 
1 -10.6462 -1.74303 -1.63612 
1 -10.714 -1.69166 1.81938 
1 -8.81611 -3.61907 -1.72774 
2 -9.07204 -3.58186 1.72194 
1 -8.79517 -1.62569 -0.0373967 
1 -12.474 0.0483006 -1.62851 
1 -10.6731 0.0321537 -0.0629623 
2 -12.4122 0.0599212 1.82946 
1 -7.14406 -3.59479 -0.118646 
1 -7.05686 -1.75337 -1.70975 
1 -7.22308 -1.79372 1.70979 
1 -5.20174 -3.62099 -1.78525 
2 -5.33845 -3.48976 1.70759 
2 -5.34342 -1.72199 -0.0700726 
1 -7.15015 0.181412 0.0612426 
1 -3.48012 -3.62663 -0.00169921 
1 -3.63668 -1.80263 -1.79218 
2 -1.693 -3.40665 -1.80568 
2 -3.38266 -1.82275 1.82669 
1 -1.69277 -3.53555 1.91095 
1 -1.72762 -1.78006 0.0461045 
1 0.0703919 -3.53109 0.116006 
1 -0.0267916 -1.6606 -1.78861 
1 -1.771 -0.00415637 1.77193 
1 -0.0953782 -0.000384775 0.0374692 
1 -1.85617 -0.0144921 -1.75573 
1 0.0132633 -1.76542 1.85125 
2 3.50181 -3.61634 0.0810618 
2 1.76445 -3.52835 -1.67638 
1 3.43217 -1.74725 -1.80837 
1 1.79753 -3.52695 1.88563 
1 3.59861 -1.91621 1.87041 
1 1.72472 -1.7827 0.0981903 
2 3.63254 0.0569075 -0.0506313 
1 1.75898 0.068464 -1.84024 
2 1.81611 -0.0752832 1.8167 
1 7.01984 -3.6788 -0.123217 
1 7.23578 -1.81935 -1.87351 
1 7.00749 -1.89889 1.82777 
1 5.32309 -3.42899 -1.98913 
1 5.36612 -3.6959 1.72494 
2 5.26374 -1.85092 -0.107472 
1 5.43031 0.0234903 -1.93946 
1 7.02137 -0.039665 -0.079535 
1 10.5584 -3.51009 -0.143512 
1 10.5412 -1.77579 1.76939 
1 10.5532 -1.73831 -1.88159 
1 8.96805 -3.56897 -1.91545 
1 8.89269 -3.59949 1.82656 
2 8.84135 -1.76037 -0.0586094 
1 12.2172 -3.46465 -1.8568 
1 12.3272 -1.73288 -0.0117576 
2 12.2243 -3.61066 1.6936 
1 8.8738 0.092332 -1.91085 
2 12.3995 -0.017093 -1.78188 
2 14.0746 -3.51712 -0.295033 
1 14.4665 -1.42153 -1.56273 
1 14.0552 -1.93214 1.75071 
2 -2.95499 -14.2053 2.90198 
1 -0.480259 -14.2437 3.51946 
1 3.29598 -14.1648 3.3435 
1 5.18951 -12.5651 3.42069 
1 -10.8158 -10.4461 3.49353 
1 -10.7061 -8.6903 5.47806 
2 -8.82636 -8.88722 3.50061 
2 -8.91088 -10.6994 5.20634 
2 -5.00952 -12.625 3.45639 
1 -7.02261 -11.0504 3.62427 
1 -5.43921 -10.8889 5.46158 
1 -7.20416 -9.04976 5.27099 
2 -5.45618 -9.02082 3.51668 
2 -3.22247 -12.7294 5.29856 
1 -1.74454 -12.2636 3.394 
1 -1.77435 -10.7196 5.30494 
1 -3.55661 -10.691 3.5082 
2 -3.53999 -9.1281 5.33768 
1 -1.62754 -8.795 3.46312 
1 -0.0890104 -9.02427 5.3424 
1 3.29906 -12.4592 5.20788 
2 -0.114592 -12.4726 5.25819 
1 1.47781 -12.5264 3.50547 
1 0.0133594 -10.6386 3.62128 
1 1.74914 -10.7151 5.40197 
2 3.38931 -10.7396 3.51441 
1 3.62707 -9.07307 5.46021 
1 1.70331 -8.96674 3.59321 
1 7.08967 -10.9396 3.98973 
1 5.34147 -11.0042 5.46926 
2 7.15664 -8.99278 5.45489 
2 5.30831 -9.03897 3.58818 
1 9.17968 -10.6239 5.40685 
2 8.96812 -8.87907 3.602 
2 10.6399 -8.63615 5.39216 
1 -12.4919 -5.43356 3.36237 
1 -10.7218 -7.21844 3.5229 
1 -10.6669 -5.38375 5.05373 
1 -8.7706 -7.09025 5.2582 
1 -8.97805 -5.52467 3.4523 
1 -7.07862 -7.13267 3.34818 
1 -7.06894 -5.39066 5.25323 
1 -5.47679 -7.21177 5.31274 
2 -5.27825 -5.45658 3.55517 
1 -1.71577 -7.16359 5.25805 
1 -3.56708 -7.27166 3.60752 
1 -3.57071 -5.41528 5.34559 
2 -1.76823 -5.49157 3.44278 
2 0.071187 -5.3946 5.23585 
1 0.0643149 -7.25322 3.46901 
1 1.75204 -7.2762 5.42754 
1 3.4314 -7.29633 3.47538 
1 3.49172 -5.48845 5.23176 
1 1.79796 -5.34311 3.44471 
1 7.1933 -7.283 3.55184 
1 5.26649 -7.23516 5.37106 
2 7.14005 -5.57093 5.27906 
2 5.31162 -5.54896 3.59198 
1 10.7476 -7.16245 3.41385 
1 10.7803 -5.57001 5.25368 
1 8.8537 -7.14139 5.45561 
1 8.94848 -5.59648 3.50016 
2 12.3887 -5.39272 3.41573 
1 -14.144 -3.63612 3.28733 
1 -12.4796 0.0613233 5.30661 
1 -14.2165 0.257523 3.69113 
1 -12.5454 -3.5835 5.23254 
1 -12.5807 -1.74722 3.72403 
1 -10.7103 -1.66647 5.32919 
1 -10.7697 -3.48809 3.54171 
1 -8.8016 -3.61575 5.40251 
2 -9.01512 -1.81567 3.74094 
1 -7.0627 -1.63422 5.44466 
2 -7.17398 -3.63556 3.56223 
1 -5.40803 -3.6458 5.40158 
1 -5.46603 -1.79638 3.62389 
2 -3.65996 -1.68592 5.34928 
2 -1.87271 -3.6101 5.25461 
1 -3.66095 -3.53352 3.55895 
1 -1.71375 -1.65746 3.63985 
1 -1.70201 -0.0561501 5.32004 
1 0.0129091 0.0373403 3.59899 
1 0.0393806 -1.86764 5.32648 
1 0.083932 -3.52083 3.62879 
1 1.98987 -3.58485 5.27777 
1 3.65826 -1.81423 5.33424 
1 3.65916 -3.69823 3.4289 
1 1.92713 -1.80183 3.71556 
1 1.84256 -0.0449449 5.37142 
1 3.678 0.0495775 3.67767 
1 7.02472 -1.81234 5.32656 
1 7.04308 -3.52847 3.49297 
1 5.28719 -3.67134 5.29902 
1 5.33102 -1.78095 3.56899 
1 5.35747 -0.0469806 5.44819 
2 10.4703 -1.73352 5.21061 
1 10.6254 -3.68431 3.46742 
2 8.87387 -3.64569 5.24305 
1 8.84015 -1.86168 3.33042 
2 12.3722 -1.71517 3.55488 
1 8.78605 0.0717663 5.40771 
1 12.3357 -3.69575 5.25295 
1 14.12 -3.54936 3.49685 
1 14.1417 -1.93447 5.27744 
1 -8.9114 -8.93137 7.01388 
1 -5.25786 -9.18618 10.532 
1 -5.37485 -10.8676 8.77344 
1 -7.18656 -10.7655 6.95056 
2 -7.085 -8.99884 8.77926 
1 -5.3891 -9.03066 6.95456 
1 -1.65163 -12.3304 7.18743 
2 -1.88841 -8.76295 10.5669 
1 -1.84411 -10.6388 8.86068 
1 -3.5888 -10.9232 7.12345 
1 -3.62955 -9.03223 8.75077 
1 -1.85485 -9.06004 7.15792 
1 -0.0151894 -8.93307 8.96389 
1 -0.038679 -10.5985 7.18836 
1 1.54762 -12.4188 7.04722 
1 1.82193 -10.7098 8.83638 
1 3.5812 -10.8154 7.09171 
1 3.53764 -9.06041 8.96766 
1 1.84425 -8.97634 7.15953 
1 1.82363 -8.9316 10.6331 
1 7.05143 -10.7873 7.24982 
1 5.33835 -8.64993 10.6459 
1 5.42229 -10.48 8.95979 
1 7.15049 -9.05987 9.02662 
1 5.38584 -8.96699 7.13989 
1 8.95092 -8.81365 7.2451 
1 -10.4755 -5.46109 9.04168 
2 -10.6089 -6.85503 6.86985 
1 -8.77724 -7.19019 8.89906 
1 -8.66349 -5.42794 7.18995 
1 -8.75897 -5.4881 10.6877 
1 -6.99802 -7.35676 10.7257 
1 -7.05632 -5.61641 8.90566 
1 -5.4048 -7.29774 8.78586 
1 -7.04217 -7.16455 6.99357 
1 -5.40239 -5.3619 7.0774 
1 -5.41025 -5.45557 10.8328 
2 -3.74279 -7.14624 10.7572 
1 -2.01388 -5.43937 10.6041 
1 -1.93349 -7.2195 8.73868 
2 -3.6391 -5.46231 8.81248 
1 -3.59757 -7.21557 6.94479 
1 -1.73568 -5.35221 7.10524 
1 -0.114499 -7.32433 7.08766 
1 -0.0631029 -7.15333 10.6423 
2 -0.0211561 -5.43509 8.97004 
1 3.59481 -7.12468 10.7466 
1 1.85106 -5.24315 10.589 
1 1.89561 -7.25857 8.91482 
1 3.57656 -5.30892 8.90646 
1 3.57161 -7.21537 7.0882 
2 1.83092 -5.45902 7.18409 
1 6.95915 -6.98361 10.7738 
1 5.19865 -5.45569 10.5941 
1 5.30875 -7.20858 8.82199 
1 7.03893 -5.37175 8.94417 
1 7.13473 -7.13111 7.19998 
2 5.30122 -5.39946 7.16332 
1 8.72036 -5.14353 10.8795 
1 10.4414 -5.08606 9.09031 
1 10.6243 -6.92108 7.3133 
1 8.75362 -7.00878 9.0037 
1 8.77275 -5.32572 7.17032 
2 -12.0945 -1.70437 7.30012 
1 -8.94976 -1.88166 10.5626 
1 -10.7966 -2.87876 9.12335 
2 -10.7163 -3.92452 6.97029 
1 -8.65119 -3.83391 8.98358 
2 -9.10804 -1.86518 7.23933 
1 -11.0233 -0.509336 9.33513 
1 -7.16665 -3.51073 10.8594 
1 -5.33864 -1.76403 10.6306 
1 -7.11114 -1.80183 8.94056 
2 -5.45806 -3.55457 8.94188 
1 -7.09727 -3.54221 7.13961 
1 -5.31338 -1.68199 7.22169 
1 -3.64441 -3.62086 10.6213 
1 -1.91436 -1.79956 10.6401 
1 -3.65249 -1.75729 8.88016 
2 -1.81633 -3.56407 8.91521 
1 -3.61199 -3.61036 7.10956 
1 -1.80849 -1.76569 7.1683 
1 -0.00756648 -1.84621 8.94915 
1 -0.0608735 -0.12054 10.7054 
1 -0.0633166 -3.58821 10.5875 
2 0.116338 -3.47235 7.03115 
1 1.89794 -1.76528 7.04689 
2 3.64053 -3.51937 7.19762 
1 1.73313 -1.99994 10.6289 
1 1.68122 -3.66068 8.84982 
1 3.52729 -1.66392 8.91208 
1 3.46868 -3.65758 10.6641 
1 3.51721 -0.0922523 7.06542 
1 7.07223 -3.54412 7.19515 
1 5.25243 -3.5165 8.95668 
1 5.26303 -1.7145 7.0771 
1 7.02949 -1.77254 8.8301 
1 6.97471 -3.52307 10.7372 
1 5.29186 -1.7221 10.6627 
1 7.05844 -0.0657527 10.6275 
1 5.23956 -0.0376037 8.95829 
1 8.65816 -3.51664 9.00446 
2 10.7266 -2.27633 9.14627 
1 8.76481 -1.74798 7.26237 
1 8.80773 -1.87284 10.8234 
1 10.6671 -3.72129 7.02921 
1 11.9982 -0.164542 9.16753 
2 9.15592 -0.0369894 9.19237 
2 12.2793 -1.89887 7.08445 
1 -0.141878 -8.8558 12.2954 
1 -0.0910715 -5.30626 12.1142 
1 -3.65193 -5.3369 12.5602 
1 -1.8185 -7.02844 12.3537 
1 3.68799 -5.42329 12.6038 
1 1.99676 -5.17196 14.1955 
2 1.66917 -6.99367 12.4651 
1 -0.117386 -6.66337 14.0298 
1 -7.23988 -1.58819 12.392 
1 -5.34908 -3.52516 12.4806 
1 -1.70877 -0.190978 12.4305 
1 -0.0462199 -1.86528 12.4232 
1 0.0257957 -0.301047 14.3945 
1 -3.56393 -1.88189 12.361 
1 -1.75956 -2.05013 14.3141 
1 -1.83856 -3.59274 12.3386 
2 -0.0683753 -3.83503 14.0855 
1 -3.31096 -0.384465 14.2276 
1 1.76776 -0.14488 12.5282 
1 1.66688 -2.03474 14.2398 
1 1.71921 -3.59043 12.3537 
1 3.55111 -1.85912 12.3669 
1 3.3907 -0.269554 14.4117 
1 5.21344 -0.204506 12.7057 
1 7.07671 -1.80652 12.365 
2 5.32105 -3.55141 12.3633 
1 -7.2301 1.47259 -12.3851 
1 -5.62898 3.68313 -12.6608 
2 -1.84548 1.92877 -14.1448 
2 -3.74892 1.89968 -12.4412 
1 -1.97476 3.76785 -12.3321 
2 -0.0976155 1.9422 -12.3819 
1 -3.60266 -0.0468169 -14.2071 
2 -0.0415332 -0.0551019 -14.2493 
1 -0.15358 3.77013 -14.1908 
2 -1.79982 0.00544186 -12.3135 
1 3.51495 3.31329 -14.1948 
1 3.4707 1.79484 -12.3786 
2 1.72609 3.70397 -12.4585 
1 1.60085 1.83117 -14.3555 
2 1.74045 0.033038 -12.3296 
2 3.45389 -0.0237611 -14.2563 
1 5.27267 1.69808 -14.1748 
1 7.3412 1.77337 -12.6423 
1 5.18476 3.5283 -12.5335 
2 5.28329 -0.0350313 -12.41 
1 -1.82922 7.06767 -12.6224 
1 -3.82642 5.30029 -12.6525 
1 -0.137655 5.39672 -12.3095 
1 1.65698 7.12233 -12.3719 
1 3.45966 5.47375 -12.5537 
1 -12.3599 1.80273 -6.92073 
1 -11.1822 2.90898 -9.12316 
1 -9.17774 1.7554 -10.485 
2 -8.9706 3.83915 -8.90329 
2 -9.25699 1.737 -7.2476 
1 -10.8499 3.82944 -7.03685 
1 -11.0831 0.58723 -9.19225 
1 -7.26172 3.5902 -10.7908 
2 -5.49207 1.88825 -10.6919 
2 -7.16608 1.76277 -8.73393 
1 -5.53846 3.67773 -8.83923 
1 -7.19314 3.67653 -6.9662 
2 -5.41992 1.74097 -6.99257 
1 -7.14944 -0.107989 -6.96937 
1 -3.66466 3.60509 -10.6903 
1 -1.90605 1.88965 -10.606 
1 -3.65251 1.86069 -8.80809 
2 -2.02489 3.66787 -8.93094 
2 -3.73033 3.59478 -6.99027 
1 -1.90918 1.75492 -7.04396 
1 -0.161802 3.54288 -7.11453 
1 -0.159948 1.85876 -8.94708 
1 -0.0205545 3.69676 -10.5378 
1 -0.22114 0.0679492 -7.17566 
1 -0.0264933 0.1651 -10.5243 
1 -3.55314 -0.0332633 -7.1514 
1 3.48043 3.57664 -10.6588 
1 1.74788 1.84041 -10.5747 
1 3.59239 1.88405 -8.82656 
2 1.78604 3.61718 -8.85307 
1 3.63464 3.77697 -7.09486 
2 1.55834 1.7403 -7.09653 
2 7.02127 3.58373 -10.6579 
1 5.27228 1.97949 -10.7331 
1 7.18348 1.94075 -8.93557 
1 5.25678 3.6421 -8.91091 
1 6.95653 3.50073 -7.11372 
1 5.21911 1.9143 -7.12603 
2 7.25036 0.227876 -10.8102 
2 7.00644 0.1615 -7.1823 
2 5.37841 0.145345 -8.99188 
1 8.99168 2.14099 -10.6785 
2 10.5892 2.01256 -8.90518 
1 8.71592 3.66206 -8.78448 
1 8.79627 1.90208 -7.19445 
1 10.6101 3.64896 -7.07723 
1 10.1942 0.158578 -10.6374 
1 8.73011 0.101271 -8.85401 
2 12.435 1.79784 -7.17627 
1 -10.8531 5.5125 -8.81829 
1 -10.7727 7.16664 -7.05981 
1 -9.02333 7.24911 -8.85171 
1 -8.88733 5.4372 -7.09473 
1 -8.76577 5.54803 -10.6609 
2 -5.50729 5.32737 -10.7074 
1 -7.11367 7.21071 -10.6468 
1 -7.10609 5.40217 -8.8355 
1 -5.43338 7.23654 -8.77941 
2 -7.19942 7.26473 -7.05162 
1 -5.47419 5.49161 -6.80777 
2 -3.6635 7.17334 -10.9475 
1 -1.91988 5.47344 -10.7328 
1 -1.78757 7.24237 -8.77666 
2 -3.76315 5.50684 -8.85491 
1 -3.76858 7.22381 -6.95892 
1 -1.88142 5.4136 -7.05488 
1 -0.114648 7.31352 -6.9883 
1 -0.0656337 7.23912 -10.6638 
2 -0.131953 5.44849 -8.84896 
1 3.50112 7.30519 -10.8801 
1 1.79405 5.45669 -10.5784 
2 1.66004 7.52509 -9.06689 
1 3.57154 5.51325 -9.0195 
1 3.50101 7.22356 -7.13011 
1 1.78518 5.57334 -7.14833 
1 6.94185 7.03789 -10.7431 
1 5.24956 5.36477 -10.7523 
1 6.87266 5.39929 -8.96233 
1 5.27069 7.30608 -8.92122 
1 7.062 7.21465 -7.20627 
1 5.26848 5.51533 -7.16676 
1 8.83547 5.05164 -10.7865 
1 10.6122 5.0526 -8.96954 
1 8.80597 6.89015 -9.27077 
1 8.64779 5.43935 -7.22252 
2 10.5108 6.86978 -7.25691 
1 -8.96855 9.07076 -7.28581 
1 -5.33825 9.04902 -10.6732 
1 -5.25129 10.6997 -8.79816 
1 -7.12051 9.03673 -9.04316 
1 -5.44148 8.97218 -7.01435 
1 -7.2162 10.5959 -7.13524 
2 -1.84154 8.98002 -10.6877 
2 -2.04491 10.7296 -8.88255 
1 -3.66982 10.7991 -6.94926 
1 -3.67822 8.89416 -8.7611 
1 -1.85102 9.00844 -7.11 
1 -0.12753 9.21432 -8.89751 
1 0.0101758 10.7096 -7.04201 
1 -1.60469 12.4346 -7.24281 
1 0.0853054 12.0416 -9.32519 
1 1.39337 9.2504 -10.7785 
1 1.88151 10.7249 -8.91483 
1 3.44827 10.7411 -7.13398 
1 3.60938 8.98378 -8.95918 
1 1.7659 8.9326 -7.12347 
2 1.51566 12.5315 -7.18053 
1 5.40066 9.01925 -10.6173 
1 5.28857 10.6519 -8.82272 
1 7.10863 10.616 -7.18715 
1 7.14166 8.82323 -9.06806 
1 5.38922 8.92844 -7.20099 
1 9.04592 8.77353 -7.35613 
2 -14.1849 3.48368 -3.44724 
2 -12.4561 3.72306 -5.20758 
1 -12.6457 1.62284 -3.5909 
1 -12.7599 -0.080143 -5.16223 
2 -10.756 1.7003 -5.17125 
1 -10.7776 3.66674 -3.53173 
1 -9.01875 3.77297 -5.34767 
2 -8.88963 1.91715 -3.40763 
1 -10.7673 -0.055952 -3.34732 
1 -7.23072 1.84758 -5.31962 
2 -7.05851 3.63842 -3.57837 
1 -5.45611 3.5975 -5.18693 
1 -5.32709 1.77576 -3.57603 
2 -7.04826 0.00548615 -3.49599 
1 -3.54225 1.85752 -5.22552 
1 -1.79125 3.64343 -5.25504 
1 -3.52124 3.56253 -3.57046 
1 -1.81013 1.82062 -3.54212 
1 -0.147724 1.81467 -5.31114 
1 -0.106322 3.64007 -3.56519 
1 -1.81636 -0.0159044 -5.27928 
1 3.56483 1.92517 -5.40139 
2 1.67944 3.76658 -5.40587 
1 3.57242 3.77464 -3.47458 
2 1.68193 1.75905 -3.66183 
1 3.55122 0.0819151 -3.66399 
1 6.96813 1.92822 -5.34576 
1 7.06827 3.75277 -3.55194 
1 5.36185 3.71431 -5.26788 
1 5.26993 1.9496 -3.60309 
1 5.30993 0.00415322 -5.31952 
1 7.18096 -0.0204364 -3.65881 
1 10.689 1.87853 -5.40334 
1 10.5942 3.6174 -3.68468 
2 8.86415 3.72161 -5.43929 
1 8.79538 1.79926 -3.66981 
1 10.532 0.129309 -3.71984 
1 8.80048 0.22436 -5.32152 
1 12.5258 3.51872 -5.30703 
1 12.5348 1.82323 -3.61127 
1 14.3195 3.59498 -3.18373 
1 -12.6218 5.52964 -3.54745 
1 -10.9077 7.31992 -3.48935 
1 -10.8257 5.50433 -5.29708 
2 -9.06228 7.29187 -5.18361 
1 -9.06033 5.47449 -3.46875 
1 -7.17273 7.17945 -3.51942 
1 -7.30751 5.46083 -5.25236 
1 -5.42659 7.21805 -5.18297 
1 -5.33063 5.40755 -3.52956 
1 -1.85736 7.24179 -5.37869 
1 -3.5383 7.19124 -3.51944 
1 -3.58836 5.50204 -5.22564 
1 -1.88497 5.42673 -3.5672 
2 0.0508169 7.26822 -3.60841 
1 -0.0506572 5.51408 -5.42406 
1 1.92135 7.12779 -5.30965 
2 3.51773 7.20755 -3.52535 
1 3.51616 5.42839 -5.29052 
1 1.7276 5.35583 -3.47428 
1 7.14434 7.20656 -3.73266 
1 6.99569 5.31271 -5.3499 
2 5.34365 7.19042 -5.4208 
1 5.26951 5.39799 -3.51241 
1 10.706 7.20535 -3.57036 
1 10.7797 5.38859 -5.45597 
1 8.86425 7.09167 -5.27397 
1 8.89535 5.41698 -3.51682 
2 12.4704 5.13734 -3.50167 
1 -10.7738 9.05745 -5.23509 
1 -8.8688 10.6644 -5.3085 
1 -8.98831 8.89436 -3.40745 
1 -10.4326 10.8457 -3.42663 
1 -7.33257 10.8014 -3.45178 
1 -5.55156 10.8571 -5.29697 
1 -7.10255 9.06372 -5.20718 
1 -5.39096 9.08395 -3.62762 
1 -5.48802 12.5528 -3.65523 
1 -1.66911 10.7297 -5.24865 
1 -3.60527 10.8574 -3.59678 
2 -3.66205 9.04587 -5.29453 
1 -1.86399 9.0228 -3.47724 
1 -0.0305793 8.99003 -5.31047 
1 -1.83436 12.546 -3.50989 
1 -0.24889 12.5418 -5.21347 
1 -3.53271 12.5426 -5.28834 
1 -0.0497188 10.7614 -3.54875 
2 1.67243 10.8486 -5.21624 
1 3.57754 10.9099 -3.6067 
1 3.6133 9.0884 -5.41226 
1 1.72496 9.00475 -3.64398 
1 1.66381 12.5579 -3.51999 
1 3.54948 12.6791 -5.41123 
1 7.31008 10.804 -3.67795 
2 5.37463 10.9101 -5.38797 
1 7.1676 8.90296 -5.42814 
2 5.33957 9.04761 -3.70056 
1 5.43736 12.5748 -3.62094 
1 10.6165 8.64794 -5.49582 
1 9.03439 10.4236 -5.53114 
1 9.01514 8.92391 -3.58605 
1 -3.53057 14.4004 -3.54751 
1 -0.159726 14.4355 -3.66003 
2 1.67928 14.2208 -5.1767 
1 3.49322 14.2919 -3.52328 
1 -14.2039 3.56643 -0.205016 
1 -14.2981 1.67269 -1.69879 
1 -14.309 1.83163 1.80087 
1 -12.589 1.76836 0.139613 
1 -12.5028 3.36284 -1.90672 
2 -12.5221 3.68496 1.87267 
2 -10.8533 3.59912 -0.0213234 
1 -10.7874 1.79423 -1.79812 
1 -10.7273 1.8499 1.70413 
1 -8.89813 3.74611 -1.82816 
1 -8.85199 3.71078 1.7532 
1 -8.87167 1.95281 -0.0470387 
2 -8.95459 0.0357994 1.72552 
1 -8.88572 0.0395493 -1.65463 
1 -7.09348 3.61537 -0.0270198 
1 -7.03887 1.88528 -1.65682 
1 -7.16005 1.86956 1.89565 
1 -5.27036 3.53197 -1.73053 
1 -5.25295 3.63222 1.80865 
1 -5.31101 1.83239 0.051429 
1 -5.29838 0.123793 -1.74477 
2 -5.41672 0.110288 1.79019 
2 -3.40459 3.72623 -0.0252294 
1 -3.53067 1.69725 -1.73108 
2 -1.69931 3.54995 -1.81737 
1 -3.57908 1.77876 1.59112 
1 -1.86312 3.59294 1.75762 
1 -1.80892 1.79118 0.0958472 
1 -0.167178 1.74419 1.67173 
1 -0.169736 1.6456 -1.82466 
1 -0.0823814 3.706 0.24807 
1 -3.41923 -0.0995022 -0.0471987 
2 3.54089 3.57426 0.156487 
1 3.59501 1.78393 -1.86663 
2 1.5943 3.59676 -1.71844 
1 3.54189 1.82599 1.99837 
1 1.67793 3.64744 1.85351 
2 1.64923 1.86733 0.109488 
1 7.0675 3.77772 -0.055166 
1 7.06979 1.88692 -1.9379 
1 7.15674 1.91589 1.74442 
1 5.27389 3.6535 -1.75199 
1 5.40951 3.41883 1.83244 
2 5.46575 1.81474 -0.0842371 
1 5.44238 0.0265235 1.79208 
1 10.7348 3.6284 0.0156894 
1 10.596 1.91224 1.70845 
2 10.6641 1.93081 -1.85194 
1 8.90414 3.66238 -1.86903 
1 8.89931 3.58328 1.74373 
1 8.70231 1.95726 -0.172018 
2 8.85815 0.242113 1.59244 
1 10.6687 0.0697433 -0.0298844 
1 12.3981 3.61543 1.68174 
1 12.4236 1.85888 0.0489652 
1 12.3561 3.5257 -1.70476 
1 12.3336 0.0478499 1.62822 
1 14.2391 3.53836 -0.170138 
2 14.2553 1.6485 -1.64326 
1 14.319 2.02695 1.59121 
1 14.4242 0.145154 0.202842 
1 -12.6938 5.47641 -0.0637696 
1 -12.6179 7.30801 -1.77292 
1 -12.4681 7.21752 1.77411 
1 -10.7223 6.97133 -0.10524 
1 -10.7868 5.3127 -1.83751 
1 -10.756 5.36024 1.76804 
1 -8.9327 7.04598 -1.75444 
2 -9.01132 7.06751 1.70545 
1 -8.90325 5.35495 -0.061875 
1 -7.15048 7.08039 -0.0751688 
1 -7.14236 5.31577 -1.7796 
2 -5.27778 7.06513 -1.83776 
1 -7.04586 5.38827 1.65731 
1 -5.2737 7.14518 1.79489 
1 -5.28151 5.35618 0.0117756 
1 -3.52642 7.21082 -0.0683981 
1 -1.74666 7.07607 -1.82778 
1 -1.84484 7.30957 1.78162 
1 -3.56094 5.40057 -1.81678 
1 -3.6215 5.45713 1.84888 
2 -1.77264 5.45715 0.050593 
1 -0.0306569 5.39791 -1.86753 
1 0.0348586 7.30469 -0.0642189 
1 -0.0973459 5.53449 1.80255 
1 3.49218 7.21543 -0.0551842 
1 1.75871 7.15723 -1.81267 
2 1.74255 7.25826 1.76916 
1 3.53024 5.34019 -1.60533 
2 3.60641 5.41611 1.83113 
1 1.7082 5.43396 0.0518308 
1 7.12585 7.1579 -0.0358715 
1 7.17417 5.50523 -1.83628 
2 5.31249 7.0469 -1.76601 
1 7.20245 5.3876 1.81065 
1 5.38815 7.24155 1.84765 
1 5.36418 5.37269 0.0498249 
1 10.5801 7.15952 -0.289598 
1 10.6227 5.42054 1.72054 
1 10.6328 5.31281 -1.8497 
1 8.90972 7.15956 -1.91498 
2 9.19676 7.293 1.76188 
1 8.83373 5.39296 -0.0219627 
2 12.0311 7.37934 1.46856 
1 12.4273 5.42579 -0.132795 
1 12.4683 7.06529 -1.75833 
2 -8.90313 10.5668 -1.5397 
1 -9.01049 10.6771 1.56881 
2 -10.6613 8.79304 -1.6171 
1 -10.7133 8.99697 1.45642 
1 -8.80753 8.8179 0.00581347 
1 -7.1428 10.5686 0.0225534 
1 -5.43328 10.7793 1.88561 
1 -5.32089 10.6623 -1.83321 
1 -7.08062 8.88161 -1.81991 
1 -7.07113 8.98342 1.82423 
1 -5.34912 8.91389 0.0536564 
1 -7.21751 12.553 -1.86232 
1 -3.66062 10.8729 -0.104136 
2 -1.87999 10.8883 1.73484 
1 -1.89442 10.8367 -1.7897 
1 -3.60303 8.9938 -1.73577 
2 -3.60882 8.99347 1.84186 
1 -1.95468 9.00657 0.043709 
1 -3.72083 12.563 -1.89774 
1 -0.0289141 9.11277 1.71844 
1 -0.0643978 10.7935 -0.0256316 
1 -0.15589 12.5203 -1.85249 
1 -0.051954 12.6637 1.86678 
2 -0.140094 8.99972 -1.68743 
1 3.61314 10.7601 -0.03252 
1 1.86371 10.7923 1.71363 
1 1.76786 10.7425 -1.81412 
1 3.46494 9.0278 -1.87165 
1 3.66521 8.98776 1.75666 
1 1.85907 9.21397 0.0517455 
2 1.71406 12.6326 -0.0296218 
1 7.09244 10.5852 -0.180185 
1 5.32707 10.6445 1.69041 
2 5.37379 10.7183 -1.93476 
1 7.19394 8.92816 -1.93167 
1 7.18785 9.04321 1.60662 
2 5.35539 8.87167 -0.0373431 
2 7.08749 12.3065 1.3627 
1 7.33242 12.5056 -1.73619 
1 10.8742 9.04101 -2.0163 