ITEM: TIMESTEP
1520000
ITEM: NUMBER OF ATOMS
1289
ITEM: BOX BOUNDS pp pp pp
-100 100
-100 100
-100 100
ITEM: ATOMS type x y z 
1 -1.89324 -6.93864 -12.4367 
1 -3.7527 -5.19073 -12.6685 
1 -0.142498 -5.20467 -12.507 
1 1.40933 -7.04438 -12.5869 
1 3.41784 -5.34103 -12.6392 
1 -7.25206 -1.7091 -12.4186 
2 -5.46246 -3.5932 -12.3435 
1 -5.49303 0.0035035 -12.54 
2 -1.7888 -1.8012 -14.293 
2 -3.67576 -1.75458 -12.5599 
1 -1.88997 -3.64438 -12.513 
1 -0.162683 -1.81951 -12.512 
1 -0.0170181 -3.62857 -14.1777 
2 -1.88608 -0.0389667 -12.354 
2 3.32806 -3.16383 -14.3021 
1 1.75563 -3.57369 -12.4243 
1 3.39674 -1.66101 -12.2486 
1 1.60665 -1.48893 -14.3053 
2 3.45789 -0.106322 -14.3735 
2 -0.185028 0.2304 -14.3791 
1 5.29776 -1.71684 -14.3385 
2 6.98431 -1.84217 -12.5668 
2 5.1166 -3.55392 -12.6577 
1 -1.73246 -12.4932 -7.03984 
1 -9.00634 -8.9501 -7.24943 
2 -5.31886 -10.6813 -8.79473 
1 -5.39311 -8.99095 -10.8535 
1 -7.12365 -9.06794 -8.89221 
1 -5.39588 -8.86263 -7.05662 
1 -7.15255 -10.6548 -6.97893 
1 -1.86295 -10.7229 -8.84827 
1 -2.16219 -9.00763 -10.7694 
1 -3.7147 -10.9513 -7.0837 
2 -3.70024 -8.93522 -8.90606 
1 -2.02625 -8.98639 -7.05522 
1 -0.211115 -8.88892 -9.03735 
2 -0.0248539 -10.709 -7.10386 
1 -0.0638132 -10.522 -10.6861 
1 1.80665 -12.381 -7.23751 
1 1.81997 -8.74563 -10.8385 
2 1.7452 -10.6086 -9.04869 
1 3.544 -10.6988 -7.21897 
2 3.71084 -9.00152 -8.9998 
1 1.7945 -8.91173 -7.2859 
1 5.34546 -10.7989 -8.82397 
1 6.99871 -8.85736 -8.88501 
1 5.31098 -8.77722 -7.0481 
1 7.00118 -10.5645 -7.01089 
1 5.44962 -8.85866 -10.5935 
1 8.85214 -8.88423 -7.2257 
1 -10.514 -5.2617 -8.94987 
1 -8.7706 -5.34181 -10.5484 
1 -8.94323 -7.26336 -8.90956 
2 -8.91338 -5.33793 -7.07265 
2 -10.6153 -7.20811 -7.05359 
1 -7.12155 -7.40689 -10.7771 
1 -5.64191 -5.46114 -10.6901 
1 -7.13973 -5.47053 -8.87145 
1 -5.54773 -7.20576 -8.90431 
2 -7.13621 -7.17053 -6.97096 
1 -5.32321 -5.32751 -7.16537 
2 -3.85604 -6.99301 -10.8055 
1 -1.89751 -5.32456 -10.6822 
1 -1.95325 -7.10438 -9.07213 
1 -3.75356 -5.42062 -9.07705 
1 -3.70235 -7.17217 -7.05268 
2 -1.95673 -5.44202 -7.14385 
2 -0.124151 -7.28046 -7.3699 
2 0.0375308 -5.38334 -9.06951 
1 -0.110565 -7.16012 -10.726 
2 3.67256 -7.01416 -10.7346 
1 1.79714 -5.41447 -10.8603 
1 1.8243 -7.20252 -9.06371 
1 3.40437 -5.08354 -9.01144 
1 3.59709 -7.17055 -7.21163 
2 1.81692 -5.32622 -7.19175 
1 6.8606 -7.04804 -10.9857 
1 5.28777 -5.28186 -10.6944 
1 5.29322 -7.06413 -8.95727 
1 6.96776 -5.27057 -8.99436 
1 7.02625 -7.03822 -7.27013 
1 5.25025 -5.20952 -7.10615 
1 8.64125 -5.2438 -10.7272 
1 10.5711 -5.04881 -8.96183 
1 10.4776 -6.74606 -7.18186 
2 8.7598 -6.9647 -9.09868 
1 8.72747 -5.15109 -7.35514 
1 -12.4161 -1.6888 -6.91654 
1 -10.7458 -1.72097 -8.7037 
1 -9.10166 -1.83065 -10.5103 
1 -10.78 -3.69855 -7.08242 
1 -8.82084 -3.56376 -8.86483 
1 -8.99984 -1.88542 -7.08282 
1 -10.8893 0.103741 -6.92476 
1 -9.04183 -0.237291 -8.71268 
1 -7.23878 -3.53459 -10.624 
1 -5.41533 -1.65611 -10.676 
1 -7.1283 -1.79325 -8.95002 
1 -5.38291 -3.55928 -9.00128 
1 -7.10946 -3.57952 -7.14629 
1 -5.30764 -1.86379 -7.25624 
1 -7.35414 -0.091902 -10.5556 
1 -5.438 -0.0121549 -8.8556 
1 -3.62547 -3.57267 -10.7516 
1 -1.75139 -1.9238 -10.7934 
1 -3.65909 -1.76419 -8.9739 
2 -1.83443 -3.4814 -8.98153 
1 -3.57505 -3.58359 -7.10236 
1 -1.84715 -1.72912 -7.07748 
1 -1.81885 0.0914274 -8.86507 
1 -0.0941647 -3.53075 -7.13196 
1 -3.65092 0.0142199 -10.6151 
1 -3.58959 -0.0377882 -7.23101 
1 0.00204695 -3.49396 -10.7663 
1 -0.121513 -1.76532 -8.8777 
1 3.45067 -3.5368 -10.7342 
1 1.5564 -1.77325 -10.7105 
1 1.60524 -3.45679 -8.9751 
2 3.39457 -1.83546 -8.83649 
1 3.51674 -3.41458 -7.02779 
1 1.59099 -1.8066 -7.06053 
1 6.95768 -3.54262 -10.8257 
1 5.2649 -1.73632 -10.714 
1 7.15264 -1.79547 -8.96143 
1 5.30561 -3.49869 -8.9495 
1 6.82898 -3.50689 -7.09328 
1 5.28305 -1.61755 -7.17534 
1 8.91703 -1.99891 -10.8568 
1 10.6931 -3.68251 -7.07961 
1 8.68121 -3.58876 -9.01496 
2 8.83219 -1.96342 -7.10484 
2 10.5404 -1.81576 -8.96378 
1 10.4241 -0.0625811 -10.7293 
1 12.5015 -1.81257 -7.17213 
1 -5.51183 -12.4689 -3.4375 
1 -1.78537 -14.0875 -5.10803 
2 0.0695178 -14.1981 -3.39968 
1 -3.71134 -12.6022 -5.18145 
1 0.181079 -12.6978 -5.46277 
1 -10.5849 -8.92006 -5.2743 
1 -8.74453 -10.5625 -5.27308 
2 -8.87318 -8.91145 -3.38477 
1 -7.13505 -10.6288 -3.45651 
1 -5.41972 -10.7472 -5.31883 
1 -7.00299 -8.95539 -5.24402 
1 -5.31638 -8.80277 -3.51921 
1 -1.90755 -12.5036 -3.27287 
2 -1.8936 -10.8963 -5.28197 
1 -3.72117 -10.7112 -3.48405 
1 -3.68983 -9.04336 -5.37052 
2 -1.87105 -8.92342 -3.56223 
1 0.00292996 -8.9234 -5.42114 
2 -0.0858487 -10.7149 -3.59598 
2 2.01345 -12.4311 -3.71682 
1 3.57212 -12.4458 -5.62116 
1 1.83084 -10.6358 -5.51064 
1 3.46867 -10.6067 -3.68336 
1 3.56551 -8.91906 -5.43023 
1 1.67907 -8.97467 -3.62978 
1 5.13852 -12.4609 -3.5828 
2 7.22582 -10.7504 -3.71476 
1 5.18548 -10.7718 -5.41001 
1 7.19302 -8.74138 -5.52352 
2 5.32707 -8.95335 -3.57487 
1 8.96879 -10.7209 -5.43186 
2 9.00967 -8.86955 -3.73386 
1 10.6146 -8.59234 -5.66565 
1 -12.4508 -5.52494 -3.48915 
1 -10.8925 -7.28137 -3.59505 
1 -10.949 -5.56514 -5.26489 
2 -8.95218 -7.15041 -5.24511 
1 -8.92833 -5.4839 -3.5338 
1 -7.17073 -7.17917 -3.50528 
1 -6.98851 -5.32911 -5.22565 
1 -5.30073 -7.09545 -5.23274 
1 -5.29984 -5.37567 -3.48955 
1 -1.91479 -7.27743 -5.41096 
1 -3.50479 -7.14031 -3.53053 
1 -3.64137 -5.45291 -5.3462 
1 -1.82832 -5.44586 -3.59189 
2 -0.0534457 -5.40763 -5.3628 
1 -0.0765128 -7.15667 -3.63206 
2 1.82251 -7.24502 -5.32287 
1 3.47819 -7.09427 -3.56241 
1 3.62376 -5.36692 -5.23638 
1 1.6742 -5.27438 -3.62069 
1 7.01134 -7.00867 -3.46915 
1 5.28197 -7.11417 -5.30889 
1 6.84928 -5.29729 -5.47714 
1 5.24187 -5.27493 -3.54379 
1 10.5883 -7.10425 -3.60444 
1 10.9409 -5.31654 -5.30007 
2 8.77796 -6.82862 -5.44038 
2 8.82431 -5.17389 -3.5886 
1 12.3069 -5.1602 -3.43693 
1 -14.0857 -3.64918 -3.36631 
1 -12.6119 -3.53962 -5.25536 
2 -12.4861 -1.71143 -3.52611 
1 -10.7056 -1.86694 -5.27813 
2 -10.7892 -3.77935 -3.35129 
1 -8.97825 -3.63437 -5.24814 
2 -8.95766 -1.81994 -3.54373 
2 -7.06628 -1.82232 -5.38468 
1 -7.11064 -3.6053 -3.48509 
1 -5.29563 -3.67351 -5.32638 
1 -5.31836 -1.89552 -3.54283 
1 -3.54102 -1.72626 -5.3425 
1 -1.98003 -3.61014 -5.35806 
1 -3.55991 -3.61883 -3.54591 
1 -1.78001 -1.7592 -3.64675 
1 -0.176304 -1.75011 -5.42376 
1 -0.0631602 0.0217615 -3.59023 
1 -1.86792 0.0779582 -5.23855 
1 -0.133705 -3.52041 -3.66429 
1 1.60665 -3.67972 -5.3552 
1 3.44895 -1.58005 -5.45822 
1 3.50411 -3.48102 -3.55689 
2 1.79463 -1.81716 -3.74746 
1 1.5833 -0.0317287 -5.44655 
1 7.02134 -1.85657 -5.38054 
1 6.98229 -3.57044 -3.64857 
1 5.24074 -3.40088 -5.3347 
1 5.16677 -1.75313 -3.61419 
1 7.03764 -0.102676 -3.67422 
1 10.5036 0.00819157 -3.55632 
1 10.4619 -1.77834 -5.30553 
1 10.602 -3.4645 -3.65383 
1 8.85517 -3.67344 -5.42117 
1 8.89814 -1.85898 -3.66233 
1 12.1049 -1.69717 -3.49914 
2 12.497 -3.24326 -5.24702 
2 12.3486 -0.136403 -5.33704 
1 8.83236 -0.067484 -5.3211 
2 14.0288 -3.07402 -3.12851 
2 14.1189 -0.159835 -3.52342 
1 -5.11095 -12.4763 0.117941 
1 -1.69987 -14.4984 -1.59369 
1 -3.40778 -14.1879 0.197801 
1 -1.20525 -14.3636 1.06523 
1 0.605508 -14.69 -0.598265 
1 2.39666 -14.405 -2.26156 
1 3.48244 -14.2426 0.0153393 
2 1.5599 -14.2535 1.83814 
1 4.92532 -14.0357 -1.87678 
1 5.27126 -12.5677 0.138723 
1 -10.6567 -10.5899 0.118846 
1 -10.7907 -9.0566 -1.83012 
1 -8.81122 -10.6389 -1.53489 
2 -8.71512 -10.8184 1.62574 
1 -8.86442 -8.86071 0.0287844 
2 -10.6667 -8.94915 1.89391 
2 -6.96264 -12.5428 1.54733 
2 -7.10325 -12.4255 -1.45252 
1 -7.00423 -10.5216 0.0379495 
2 -5.3667 -10.6148 -1.65819 
2 -5.14813 -10.6788 1.78644 
1 -7.07308 -8.86713 -1.70175 
1 -7.1988 -8.69799 1.79459 
1 -5.31593 -8.76574 0.0154645 
1 -3.59641 -12.6885 -1.78123 
1 -1.72853 -12.4087 -0.095907 
1 -3.24825 -12.4446 1.77625 
1 -3.59045 -10.6904 0.00507772 
1 -1.90191 -10.6862 -1.70337 
1 -1.71883 -10.4864 1.73731 
1 -3.55858 -8.82319 -1.67088 
1 -3.45253 -8.83143 1.85272 
1 -1.68765 -8.85382 0.0595021 
1 -0.0972023 -12.3508 1.80415 
1 0.02135 -10.5704 0.00874232 
1 -0.000823217 -8.96771 -1.73062 
2 0.076787 -12.494 -1.69774 
1 0.0877731 -8.81442 1.80495 
2 1.77659 -12.4389 0.0470445 
1 3.52684 -12.4062 1.75284 
1 3.48216 -12.2206 -1.79568 
1 3.52364 -10.6463 0.036531 
1 1.84039 -10.5089 -1.84277 
1 1.56223 -10.6262 1.72258 
1 3.58472 -8.83772 -1.72002 
1 3.41645 -8.87516 1.71925 
1 1.7984 -8.72862 0.00244341 
1 7.13181 -12.2758 1.75349 
2 6.91383 -12.3283 -1.75082 
1 6.87276 -10.6532 -0.00244697 
1 5.21838 -10.6109 -1.77165 
1 5.14719 -10.5301 1.74366 
1 7.00338 -8.89007 -1.91646 
2 7.05679 -8.86533 1.8476 
1 5.28699 -8.88907 -0.0200583 
1 8.78958 -12.1292 -0.0273725 
1 8.83034 -10.5366 -1.93434 
1 10.7349 -8.91233 -1.79672 
1 10.7015 -8.8593 1.66753 
2 8.81313 -8.90929 -0.0885189 
1 9.01014 -10.6369 1.81927 
1 -12.6644 -5.49784 0.141584 
1 -12.4605 -7.26602 -1.71413 
2 -10.8246 -7.21713 0.0572602 
1 -10.7095 -5.46345 -1.62434 
1 -10.796 -5.34645 1.72055 
1 -9.05047 -7.24225 -1.72978 
1 -9.11393 -7.10694 1.90378 
1 -8.95358 -5.42607 -0.0841864 
1 -7.18275 -7.05459 0.0374746 
1 -7.26219 -5.35447 -1.81806 
1 -5.44213 -7.13973 -1.8051 
2 -7.17701 -5.36239 1.735 
1 -5.20568 -7.12772 1.7765 
1 -5.27224 -5.34263 0.00537813 
1 -3.52221 -7.131 0.0305281 
1 -1.69914 -7.16884 -1.73449 
1 -1.67392 -7.20215 1.83273 
1 -3.57047 -5.46068 -1.75623 
1 -3.58565 -5.35915 1.78361 
2 -1.72459 -5.29744 -0.0282218 
1 0.0347836 -7.05998 0.0344766 
1 -0.040727 -5.36355 -1.91937 
1 0.0864557 -5.38115 1.93546 
1 3.48361 -7.14601 -0.00452964 
2 1.68072 -7.12568 -1.87113 
1 1.82022 -7.12254 1.85275 
2 3.48973 -5.34329 -1.76068 
1 3.50305 -5.3276 1.78927 
1 1.74947 -5.40442 0.0932108 
1 7.02213 -7.23793 -0.0272262 
1 5.10171 -7.1575 -1.84734 
1 6.93375 -5.31702 -1.72118 
1 5.20634 -7.13636 1.78116 
2 7.10684 -5.39747 1.84848 
1 5.32041 -5.49624 -0.0149764 
1 10.4914 -7.13914 -0.0410751 
1 10.6166 -5.52386 1.80178 
1 10.5739 -5.3417 -1.81825 
1 8.84589 -7.09443 -1.91475 
1 8.8274 -7.14269 1.75747 
1 8.78396 -5.3569 -0.0823209 
1 12.4305 -7.09792 -1.95379 
2 12.2366 -5.41524 -0.157156 
1 12.4529 -7.1782 1.54809 
1 -14.219 -3.81172 0.032903 
2 -14.0718 -1.79637 -1.48048 
1 -14.2012 -1.98855 1.65597 
1 -12.5293 -3.85303 -1.61419 
1 -12.4806 -3.54873 1.82723 
1 -12.3165 -1.74891 0.0744331 
1 -10.6945 -3.51516 -0.100757 
1 -10.7544 -1.81663 -1.81835 
1 -10.674 -1.67353 1.83542 
1 -8.94972 -3.58471 -1.81194 
2 -8.98329 -3.53935 1.72747 
1 -9.02319 -1.83985 -0.157897 
1 -7.34546 -3.62302 -0.111081 
1 -7.21216 -1.78671 -1.73478 
1 -7.31015 -1.83109 1.6091 
1 -5.3319 -3.62945 -1.73477 
2 -5.44207 -3.47093 1.81174 
2 -5.32249 -1.76784 -0.216248 
2 -5.38017 -0.107693 1.65523 
1 -3.57031 -3.60784 -0.018554 
1 -3.54359 -1.73247 -1.87507 
2 -1.79807 -3.49915 -1.82126 
2 -3.45581 -1.76983 1.63027 
1 -1.72723 -3.62466 1.85401 
1 -1.78445 -1.81642 -0.115554 
1 -0.0158902 -1.72918 1.75031 
1 -0.0921147 -1.77347 -1.76954 
1 -0.00275266 -3.59211 0.171217 
2 3.58835 -3.63028 0.0464233 
2 1.61794 -3.46788 -1.81422 
1 3.52972 -1.76771 -1.76848 
1 1.84802 -3.60896 1.85777 
1 3.51998 -1.77574 1.89958 
1 1.73198 -1.87279 -0.010551 
2 1.66495 -0.10844 1.78972 
1 7.0508 -3.6057 0.0672577 
1 7.02449 -1.74285 -1.90543 
1 7.10132 -1.81597 1.86111 
1 5.29742 -3.5428 -1.76902 
1 5.318 -3.59226 1.87573 
2 5.45506 -1.6983 0.0424344 
1 5.42028 0.119586 1.82708 
1 5.30253 0.0421058 -1.82345 
2 12.3227 -0.262798 -1.53246 
1 10.5251 -3.60323 -0.00187063 
1 10.6422 -1.92584 1.71788 
1 10.4278 -1.85189 -1.82531 
1 8.70738 -3.53397 -1.77248 
1 8.9153 -3.64176 1.71297 
2 8.69907 -1.81189 -0.0449389 
1 12.0866 -3.45709 -1.77456 
2 12.5417 -3.78266 1.70368 
1 12.6127 -1.83394 0.249733 
2 14.0721 -3.65963 -0.411864 
1 14.5896 -1.5209 -1.48402 
1 14.5908 -2.07072 1.52621 
2 -5.09753 -12.5988 3.49177 
2 -2.88208 -14.1946 3.19296 
1 -0.367494 -14.2614 3.45386 
2 -3.2902 -12.5013 5.19672 
1 3.46895 -13.944 3.41907 
1 3.32589 -12.5016 5.41556 
1 5.33225 -12.4545 3.47061 
1 -10.4671 -10.6546 3.48102 
1 -10.7313 -8.91778 5.36093 
2 -8.7734 -8.77599 3.71751 
2 -8.69871 -10.7644 5.23774 
1 -6.97546 -10.7815 3.58217 
1 -5.31625 -10.8551 5.47461 
1 -7.01962 -8.88362 5.44821 
2 -5.25393 -8.8409 3.62131 
2 -0.15756 -12.4894 5.34052 
1 -1.6206 -12.2588 3.49947 
1 -1.63368 -10.6494 5.34619 
1 -3.43679 -10.6793 3.65439 
2 -3.41462 -8.83932 5.47653 
1 -1.70585 -8.89666 3.62562 
1 0.101691 -8.86306 5.42351 
1 0.0122291 -10.5745 3.57529 
1 1.6443 -12.4333 3.53432 
1 1.65536 -10.6211 5.3944 
2 3.36518 -10.7288 3.58442 
1 3.44667 -8.93681 5.49708 
1 1.77216 -8.83552 3.5885 
1 7.00433 -10.7038 3.6428 
1 5.42538 -10.9557 5.50653 
2 6.97433 -8.9103 5.56535 
2 5.28391 -8.99363 3.62626 
1 8.75289 -10.6916 5.59177 
2 8.81803 -8.89888 3.75182 
2 10.5187 -8.83885 5.55795 
1 -12.5603 -5.41441 3.55925 
1 -10.9012 -7.23801 3.68271 
1 -10.7671 -5.45158 5.2603 
1 -8.81895 -7.08217 5.34245 
1 -9.03969 -5.31277 3.55677 
1 -7.04087 -7.13056 3.61255 
1 -7.07975 -5.45406 5.46447 
1 -5.28432 -7.28328 5.45713 
2 -5.12598 -5.47144 3.62781 
1 -1.66508 -7.07375 5.42307 
1 -3.50202 -7.1504 3.5153 
1 -3.58596 -5.43033 5.42829 
2 -1.7949 -5.38882 3.63029 
1 -0.0339567 -7.16433 3.61742 
2 0.135915 -5.14341 5.34559 
1 1.73941 -7.085 5.45165 
1 3.51475 -7.14746 3.71713 
1 3.68034 -5.30853 5.39577 
1 1.96395 -5.34106 3.6494 
1 7.1142 -7.14817 3.64697 
1 5.42756 -7.16774 5.36178 
2 7.09808 -5.4282 5.455 
2 5.27698 -5.43088 3.52411 
1 10.7341 -7.33574 3.50641 
1 10.7689 -5.65591 5.30666 
1 8.892 -7.13683 5.45694 
1 9.00975 -5.38753 3.47232 
2 12.3953 -5.49026 3.49343 
1 -14.1568 -3.53951 3.53212 
1 -12.4462 -3.5317 5.40372 
1 -14.3081 -0.106171 3.54106 
1 -12.5214 -1.82099 3.57321 
1 -10.6226 -1.8198 5.24574 
1 -10.7244 -3.64659 3.54736 
1 -9.04536 -3.70847 5.47297 
2 -8.92175 -1.71686 3.5561 
1 -12.5093 -0.323486 5.37586 
1 -5.42173 0.0324886 5.38164 
1 -7.32045 -1.76267 5.4271 
2 -7.15698 -3.70792 3.73077 
1 -5.25687 -3.5764 5.37506 
1 -5.38115 -1.71004 3.53771 
1 -7.23024 0.000933362 3.63399 
1 -3.52917 0.10684 3.53183 
2 -3.60803 -1.75857 5.31564 
2 -1.81009 -3.52561 5.39044 
1 -3.55971 -3.46262 3.47032 
1 -1.67562 -1.60569 3.50683 
1 0.0611952 -3.53489 3.54226 
1 0.0332882 -1.73035 5.17759 
1 -0.0598825 -0.0240325 3.45502 
1 1.99211 -3.50801 5.39991 
1 3.60031 -1.64808 5.27561 
1 3.57899 -3.48529 3.57748 
1 1.84587 -1.80082 3.59667 
1 3.6375 0.10785 3.51919 
1 7.23393 -1.86069 5.27959 
1 7.14155 -3.57709 3.61342 
1 5.37883 -3.34073 5.34269 
1 5.29484 -1.7597 3.49371 
2 10.701 -1.91705 5.45968 
1 10.7392 -3.6793 3.38933 
2 8.97785 -3.68644 5.364 
1 8.97363 -1.9953 3.48259 
2 12.4613 -1.81067 3.37234 
1 12.5279 -3.66337 5.30374 
1 14.2328 -3.72857 3.45861 
1 14.3108 -1.9042 5.18059 
1 12.7357 0.00242415 5.2177 
1 -8.89963 -8.93734 6.9387 
1 -5.20815 -9.06634 10.6932 
1 -5.20888 -10.7839 8.70081 
1 -7.10123 -10.7972 7.07503 
2 -7.09913 -9.02734 8.92863 
1 -5.26318 -9.07551 7.16616 
1 -1.81456 -12.3664 7.34475 
2 -1.73679 -8.89107 10.8957 
1 -1.71188 -10.7426 9.15757 
1 -3.34505 -10.7209 7.09571 
1 -3.46325 -9.04568 8.81458 
1 -1.60485 -8.91489 7.30067 
1 -0.0927001 -8.84948 9.08103 
1 0.0445627 -10.7033 7.22824 
1 1.64919 -12.4888 7.11689 
1 1.66928 -10.7039 8.95259 
1 3.44128 -10.8227 7.20089 
1 3.503 -8.90418 8.91869 
1 1.73941 -8.97757 7.30955 
1 1.76071 -8.70426 10.7331 
1 7.04061 -10.6666 7.3663 
1 5.10055 -8.83401 10.6922 
1 5.10967 -10.6247 8.9274 
1 7.04771 -8.95342 9.00126 
1 5.18063 -8.84322 7.16065 
1 8.86504 -8.99379 7.44004 
1 -10.6417 -5.6176 8.99377 
2 -10.5572 -7.05436 7.05165 
1 -8.8839 -7.36664 8.97984 
1 -8.70437 -5.46011 7.09268 
1 -8.82818 -5.60183 10.5816 
1 -5.26645 -5.39227 10.821 
1 -6.91121 -7.24834 10.6524 
1 -6.9544 -5.57556 8.88718 
1 -5.19878 -7.25585 8.83354 
1 -7.05702 -7.19108 7.16993 
1 -5.31751 -5.39606 7.02215 
2 -3.48883 -7.13904 10.8125 
1 -1.7021 -5.21469 10.789 
1 -1.8397 -7.06875 9.02762 
2 -3.52829 -5.30171 8.9541 
1 -3.47128 -7.14213 7.1918 
1 -1.71661 -5.41524 7.04628 
1 0.0561694 -7.03754 10.7443 
1 -0.0338105 -7.20668 7.31405 
2 0.0516298 -5.34575 8.99828 
1 3.52154 -7.02098 10.886 
1 2.0145 -5.27622 10.7184 
1 1.79391 -7.10172 8.90137 
1 3.60583 -5.40308 9.04289 
1 3.56259 -7.10751 7.08677 
2 1.89377 -5.27676 7.25364 
1 6.82587 -6.97818 10.6812 
1 5.2836 -5.20421 10.7186 
1 5.28467 -7.17482 8.94367 
1 7.13167 -5.21385 9.07756 
1 7.2312 -7.22689 7.29174 
2 5.32157 -5.33528 7.23212 
1 8.74032 -5.29329 10.7628 
1 10.666 -5.33713 9.02488 
1 10.5816 -7.09609 7.36326 
1 8.76555 -7.12582 9.26531 
1 8.92643 -5.44476 7.26225 
1 -11.0952 -0.530807 9.70138 
2 -11.8665 -1.85421 7.46501 
1 -9.09382 -1.79667 10.5679 
1 -10.9399 -2.97568 9.51983 
2 -10.5883 -3.94446 7.20964 
1 -8.72661 -3.8468 8.97968 
2 -9.06603 -1.90333 7.2999 
1 -7.18086 -3.85995 10.799 
1 -5.3796 -1.78085 10.6035 
1 -7.20308 -1.7387 8.88712 
2 -5.50375 -3.63287 8.82101 
1 -7.16015 -3.54206 7.04551 
1 -5.41956 -1.79184 7.12282 
1 -3.66276 -3.52987 10.6696 
1 -1.87541 -1.77021 10.7279 
1 -3.65483 -1.83657 8.94153 
2 -1.78857 -3.4774 8.99712 
1 -3.5199 -3.55972 7.10657 
1 -1.71442 -1.65569 7.19221 
2 0.0714036 -3.33838 7.15286 
1 0.0427717 -1.58507 9.02279 
1 -0.0234661 -3.48322 10.6697 
1 1.84695 -1.62695 7.13304 
2 3.60595 -3.42199 7.24621 
1 1.87885 -1.7789 10.7413 
1 1.78927 -3.45797 8.91265 
1 3.68466 -1.72309 8.91927 
1 3.61481 -3.44583 10.6567 
1 3.69093 -0.0473302 7.07452 
1 1.98381 0.0127356 8.89998 
1 7.29664 -0.102925 7.07922 
1 5.47682 -1.74004 7.27982 
1 7.0484 -3.497 10.8393 
1 7.15031 -1.84784 9.04477 
1 5.43823 -3.48489 9.01987 
1 5.4226 -1.63615 10.696 
1 7.11389 -3.60004 7.15524 
1 5.45794 -0.0118529 8.93419 
1 7.22572 -0.0359053 10.7358 
1 8.82371 -1.91702 7.18291 
1 10.965 -3.94801 7.24286 
1 8.80004 -3.58735 8.85715 
1 8.96838 -1.88514 10.7625 
2 10.6825 -2.0784 8.92017 
2 8.99473 -0.15619 8.91344 
2 12.6422 -1.64094 7.02387 
1 0.119533 -8.40279 12.5968 
1 -0.0362018 -6.2678 14.3205 
1 -3.48882 -5.19505 12.534 
1 -1.65104 -6.80155 12.6355 
1 3.76375 -5.25961 12.5969 
1 1.98632 -4.78483 14.4792 
2 1.92346 -6.75237 12.7429 
1 0.188719 -5.21558 12.2582 
1 -5.37875 -3.53124 12.4683 
1 -7.19576 -1.87163 12.0811 
1 -5.60967 -0.111011 12.6025 
1 0.0659847 -1.72635 12.3322 
1 -1.91392 -3.46781 12.4576 
1 -3.63713 -1.71546 12.4434 
1 -1.6619 -1.84524 14.114 
2 -0.0638997 -3.70148 13.9846 
1 3.62624 -1.66403 12.4935 
1 1.93754 -3.52794 12.4808 
1 1.85827 -1.91053 14.1929 
1 0.152541 -0.0539485 14.3375 
2 5.22654 -3.35578 12.4213 
1 7.04393 -1.60726 12.6109 
1 -7.44656 1.36452 -12.3524 
1 -5.61324 3.33892 -12.6921 
2 -1.94857 2.07915 -14.3354 
2 -3.64223 1.73646 -12.4495 
1 -1.9307 3.71247 -12.333 
2 -0.0917808 1.91463 -12.4523 
1 0.049334 3.67552 -14.2688 
1 -3.56859 0.0653129 -14.4357 
1 3.50296 3.42925 -14.308 
1 3.43468 1.79933 -12.5275 
2 1.75613 3.60941 -12.4286 
1 1.68428 1.75942 -14.3529 
2 1.58098 0.0851175 -12.295 
1 5.3153 1.82798 -14.2017 
1 7.2682 1.52331 -12.7416 
1 5.27146 3.3535 -12.441 
2 5.26997 0.027922 -12.4828 
1 -1.82968 7.12944 -12.4241 
1 -3.61726 5.3289 -12.4224 
1 -0.0253608 5.44388 -12.3876 
1 1.8108 7.1168 -12.3887 
1 3.49664 5.37041 -12.6333 
1 -12.2485 1.99348 -7.22797 
1 -11.2505 3.04899 -9.29266 
1 -9.2569 1.63787 -10.3907 
2 -8.81471 3.74637 -8.96953 
2 -9.28211 1.87196 -7.18628 
1 -10.7747 3.96974 -7.13327 
1 -11.2773 0.627386 -9.06391 
1 -7.47945 3.3508 -10.8779 
2 -5.55488 1.78801 -10.7085 
2 -7.2855 1.77512 -8.82772 
1 -5.61058 3.56685 -8.87791 
1 -7.23202 3.7557 -6.94421 
2 -5.42339 1.79299 -7.08815 
1 -7.22691 0.0773196 -7.00663 
1 -3.64058 3.54954 -10.6771 
1 -1.79598 1.81962 -10.6176 
1 -3.7339 1.69281 -8.85658 
2 -1.86465 3.63342 -8.97152 
2 -3.62264 3.64847 -7.25484 
1 -1.93734 1.78681 -7.06459 
1 -0.239086 1.86033 -8.89056 
1 -0.152548 3.70428 -10.7125 
1 -0.147346 0.0476374 -10.6116 
1 -0.195521 3.65333 -7.10779 
1 -0.0985173 -0.00603244 -7.1615 
1 3.57773 3.63868 -10.7789 
1 1.74287 1.89408 -10.572 
1 3.64267 2.0385 -9.04826 
2 1.69349 3.61899 -8.92498 
1 3.57031 3.64965 -7.20084 
2 1.74605 1.90932 -7.04749 
1 3.44168 0.10676 -10.6718 
1 3.50738 0.200015 -7.08944 
2 1.70727 0.0271895 -8.91041 
2 7.0422 3.54515 -10.7184 
1 5.30457 1.74635 -10.7537 
1 7.10608 1.90781 -8.99929 
1 5.36009 3.63605 -9.02999 
1 7.18044 3.48219 -7.14184 
1 5.20218 1.83647 -7.21419 
2 7.19495 0.112815 -7.10478 
2 7.2458 0.03979 -10.7265 
2 5.33596 -0.0326329 -9.01949 
1 8.87143 1.79232 -10.7043 
2 10.6064 1.79518 -8.85102 
1 8.90516 3.47883 -8.89926 
1 8.9386 1.82227 -7.0682 
1 10.7652 3.61964 -6.98985 
2 12.2832 1.72438 -7.06188 
2 10.5705 -0.0121452 -7.0883 
1 8.82058 -0.0364762 -8.90889 
1 -10.5394 5.49023 -9.09634 
1 -10.7884 7.22902 -7.03201 
1 -8.89238 7.29859 -9.03128 
1 -8.96789 5.60861 -7.12081 
1 -8.53388 5.53717 -10.6818 
2 -5.81263 5.23122 -10.677 
1 -6.90249 7.39095 -10.6699 
1 -7.09952 5.61174 -8.71356 
1 -5.34552 7.33642 -8.88867 
2 -7.04597 7.38509 -7.1002 
1 -5.4072 5.41162 -7.05216 
2 -3.92163 7.2774 -11.0034 
1 -1.8652 5.53526 -10.6475 
1 -1.89023 7.22896 -8.95476 
2 -3.77272 5.47708 -9.05236 
1 -3.70945 7.15682 -7.00338 
1 -1.9024 5.54045 -6.9738 
2 -0.145327 5.55063 -8.90029 
1 -0.104613 7.23671 -10.7842 
1 -0.108409 7.27887 -7.13622 
1 3.58773 7.2066 -10.6095 
1 1.8289 5.42471 -10.7191 
2 1.76469 7.20546 -9.03369 
1 3.58373 5.37343 -8.9036 
1 3.44292 7.10646 -7.11064 
1 1.63375 5.38333 -7.14565 
1 7.04941 7.08993 -10.4949 
1 5.3357 5.54003 -10.6713 
1 7.13928 5.34255 -8.85717 
1 5.37492 7.04656 -8.68501 
1 7.28974 7.06506 -7.11547 
1 5.41591 5.18151 -7.14754 
1 8.88254 5.17037 -10.6624 
1 10.692 5.09571 -8.69357 
1 8.97723 6.97963 -8.79746 
1 8.92786 5.21413 -7.03355 
2 10.6322 6.8731 -7.01537 
1 -9.04077 8.96402 -7.13086 
1 -5.23075 9.30834 -10.5465 
1 -5.11652 10.8834 -8.76741 
1 -7.08516 9.15307 -8.97421 
1 -5.36741 8.9966 -6.95872 
1 -7.18609 10.6942 -7.14454 
2 -1.96853 8.95888 -10.6085 
2 -2.11021 10.7589 -8.8367 
1 -3.64145 10.7423 -6.8598 
1 -3.65562 8.90801 -8.74756 
1 -1.86841 8.98125 -7.16519 
1 -0.0364567 10.6261 -7.16958 
1 -0.118417 12.2588 -8.9069 
1 -0.215128 8.95613 -9.05301 
1 -1.84957 12.3552 -7.0083 
1 1.56671 9.04114 -10.8113 
1 1.69852 10.6896 -8.90306 
1 3.53204 10.8016 -7.27467 
1 3.46394 9.01444 -8.7995 
1 1.62036 8.96356 -7.1307 
1 5.34656 8.94088 -10.3304 
1 5.42248 10.6697 -8.60906 
1 7.29763 10.6718 -7.04136 
1 7.15001 8.87944 -8.79101 
1 5.3281 8.85799 -7.15141 
1 9.01398 8.73411 -7.07712 
2 1.69228 12.4099 -7.24336 
2 -14.071 3.61611 -3.28301 
1 -14.1746 0.121599 -3.32806 
1 -12.7566 0.246843 -5.27272 
2 -12.527 3.90223 -5.22514 
1 -12.4912 1.87794 -3.35583 
2 -10.8466 1.96578 -5.16625 
1 -10.8068 3.79523 -3.36832 
1 -8.90773 3.79674 -5.37098 
2 -9.01102 1.89821 -3.47352 
1 -10.7786 0.016859 -3.4832 
2 -8.92503 0.0473293 -5.28841 
1 -7.18853 1.94934 -5.39206 
2 -7.23843 3.6991 -3.5641 
1 -5.34719 3.55306 -5.39024 
1 -5.36001 1.87828 -3.62146 
2 -7.10123 0.0758072 -3.49447 
1 -5.27788 -0.147623 -5.48714 
1 -3.60338 1.82497 -5.30878 
1 -1.86719 3.64363 -5.24854 
1 -3.60706 3.61393 -3.52261 
1 -1.86032 1.76292 -3.58872 
1 -0.222278 1.82135 -5.34232 
1 -0.132375 3.69222 -3.58088 
1 -3.67487 -0.00098683 -3.58589 
1 3.54127 1.76176 -5.27102 
2 1.72264 3.66835 -5.42406 
1 3.57697 3.74417 -3.67561 
2 1.66247 1.79994 -3.57431 
1 3.53304 0.0927755 -3.60057 
1 7.04272 1.79517 -5.35324 
1 7.12199 3.67419 -3.36711 
1 5.35929 3.53681 -5.41063 
1 5.35574 1.81814 -3.56504 
1 5.21687 0.00851534 -5.33789 
1 10.6137 1.82009 -5.22619 
1 10.5464 3.6133 -3.49701 
2 8.88566 3.45329 -5.21207 
1 8.64094 1.77681 -3.54691 
1 12.4094 3.51908 -5.2078 
1 12.3612 1.62608 -3.54184 
1 14.1117 3.2625 -3.49312 
1 -12.5643 5.59009 -3.48212 
1 -10.7274 7.14991 -3.54879 
1 -10.594 5.44133 -5.23268 
2 -8.83533 7.25589 -5.17303 
1 -8.94195 5.48435 -3.46146 
1 -7.04123 7.24999 -3.45587 
1 -7.10327 5.44539 -5.37094 
1 -5.42576 7.14119 -5.16573 
1 -5.27354 5.2898 -3.57424 
1 -1.73195 7.16603 -5.23457 
1 -3.5357 7.29618 -3.51283 
1 -3.72271 5.35967 -5.34755 
1 -2.01192 5.44449 -3.56187 
1 -0.128002 5.40391 -5.29405 
2 -0.0159805 7.12435 -3.5376 
1 1.62616 7.20292 -5.35274 
2 3.42393 7.21763 -3.56143 
1 3.52904 5.31972 -5.49041 
1 1.78371 5.39944 -3.62679 
1 7.22475 7.03945 -3.62531 
1 7.20881 5.3035 -5.49842 
2 5.37964 7.01082 -5.50611 
1 5.41459 5.32827 -3.61004 
1 10.5539 6.94922 -3.44752 
1 10.5825 5.30243 -5.35454 
1 8.94579 7.09463 -5.29356 
1 8.82921 5.33933 -3.56821 
2 12.2927 5.25854 -3.58573 
1 -10.7669 8.93547 -5.13156 
1 -8.97878 10.6127 -5.30973 
1 -8.86331 8.87591 -3.2977 
1 -10.1855 10.8372 -3.30959 
1 -7.20129 10.8 -3.38086 
1 -5.48172 10.8013 -5.3473 
1 -6.99849 9.06271 -5.1583 
1 -5.42557 9.1259 -3.43761 
1 -5.26813 12.5281 -3.50513 
1 -1.916 10.5979 -5.29197 
1 -3.65818 10.9039 -3.50886 
2 -3.63588 8.84378 -5.27529 
1 -1.80654 8.96127 -3.50514 
1 -1.63574 12.3535 -3.61644 
1 -0.0768058 8.93448 -5.39861 
1 0.0125734 10.6562 -3.46967 
2 1.90152 10.6823 -5.25115 
1 3.64123 10.7102 -3.65884 
1 3.65656 8.85152 -5.4682 
1 1.82235 8.9563 -3.52929 
1 7.30263 10.8712 -3.64154 
2 5.41917 10.9425 -5.4933 
1 7.22465 8.97972 -5.38346 
2 5.39149 9.05098 -3.73681 
1 10.7398 8.6235 -5.00075 
1 9.02851 10.6234 -5.37194 
1 8.89797 8.81948 -3.43543 
1 0.020257 12.3576 -5.33105 
1 -3.57507 12.5781 -5.34584 
1 -3.27639 14.0662 -3.52726 
1 -0.147888 14.2109 -3.75013 
1 1.82508 12.4673 -3.4794 
1 3.62004 12.6373 -5.45653 
2 1.70851 14.1531 -5.24256 
1 3.49695 14.3493 -3.64023 
1 5.3828 12.6017 -3.68729 
1 -14.3233 3.58192 0.00443993 
1 -14.3481 1.63968 -1.61938 
1 -14.2327 1.79197 1.79593 
1 -14.1604 -0.0262708 0.220802 
1 -12.3761 1.8285 -0.0530697 
2 -12.4504 3.59107 1.84726 
1 -12.5084 3.59732 -1.62263 
2 -10.7608 3.86868 0.00484093 
1 -10.6661 1.90606 -1.80793 
1 -10.6698 1.86411 1.93942 
1 -8.9949 3.7315 -1.68835 
1 -8.91258 3.63171 1.81734 
1 -9.02998 1.89678 -0.0253707 
2 -8.99611 0.0753257 1.69524 
1 -12.3333 0.0978205 -1.71408 
1 -8.97261 0.0287678 -1.78425 
1 -10.7002 0.122409 0.022134 
2 -12.4174 0.09405 1.92133 
1 -7.14053 3.59204 0.00918303 
1 -7.11264 1.90931 -1.8005 
1 -7.21378 1.94078 1.75777 
1 -5.41102 3.613 -1.81604 
1 -5.36231 3.78067 1.77661 
1 -5.33793 1.8464 0.0682011 
1 -7.2105 0.119679 -0.0101089 
1 -5.41209 0.0680497 -1.87197 
2 -3.62334 3.61516 -0.0026076 
1 -3.66301 1.84418 -1.88408 
2 -1.79486 3.53072 -1.77649 
1 -3.59209 1.84845 1.72136 
1 -1.87012 3.5396 1.72645 
1 -1.78398 1.71305 -0.0240331 
1 -0.156335 1.72019 -1.74732 
1 -1.77149 -0.00713422 1.69796 
1 -0.12736 3.49914 0.0789356 
1 -3.5546 0.11289 -0.125752 
1 0.0094888 1.7277 1.68178 
1 -0.151743 -0.0340323 -0.112647 
1 -1.79801 -0.0331751 -1.96664 
2 3.62523 3.74096 -0.065097 
1 3.55388 1.78787 -1.87506 
2 1.71761 3.67213 -1.87645 
1 3.5824 1.96424 1.73412 
1 1.7032 3.5838 1.71893 
2 1.72311 1.78385 -0.11605 
1 1.71565 -0.156169 -1.85336 
2 3.52801 -0.00343263 0.0104991 
1 7.18207 3.64865 0.138205 
1 6.96056 1.78644 -1.70659 
1 7.16026 1.8407 1.88696 
1 5.25358 3.66273 -1.79794 
1 5.36456 3.5798 1.88524 
2 5.46464 1.8763 0.0597568 
1 7.14038 0.0575888 -0.0538438 
1 10.7081 3.4944 0.0472188 
1 10.7119 1.90771 1.82479 
2 10.4356 1.83812 -1.89332 
1 8.85831 3.72913 -1.5765 
1 8.98532 3.63541 1.74618 
1 8.76164 1.89353 -0.023017 
1 10.4971 -0.0376822 -0.0436382 
2 9.09577 0.118573 1.81011 
1 12.422 1.83291 0.0869554 
1 12.41 3.52502 -1.7604 
1 12.1232 0.0668923 1.65724 
1 8.72795 0.0194783 -1.88401 
1 12.602 3.77311 1.78713 
1 14.2056 0.115694 0.331502 
1 14.1775 3.66648 -0.21895 
2 14.0608 1.54937 -1.78121 
1 14.337 1.97376 1.69292 
1 -12.7373 5.57081 -0.0138904 
1 -12.4471 7.25588 -1.69135 
1 -12.5991 7.02756 1.80263 
1 -10.8423 7.17141 0.169206 
1 -10.7952 5.51202 -1.73361 
1 -10.8021 5.41194 1.95635 
1 -8.9972 7.16275 -1.57363 
2 -8.96289 7.0907 1.81769 
1 -8.96409 5.40672 0.088234 
1 -7.17503 7.13669 0.0580136 
1 -7.2186 5.41561 -1.73272 
2 -5.34955 7.31455 -1.72326 
1 -7.15745 5.34438 1.92216 
1 -5.37909 7.19774 1.86395 
1 -5.37146 5.42826 -0.0204875 
1 -3.58335 7.13559 0.0131485 
1 -1.81504 7.06871 -1.73573 
1 -1.86281 7.24051 1.89003 
1 -3.6729 5.42526 -1.76613 
1 -3.63962 5.48128 1.87532 
2 -1.80528 5.42973 0.177838 
1 -0.113765 7.19697 0.0293557 
1 -0.101629 5.34135 -1.76239 
1 -0.0275205 5.50856 1.87574 
1 3.63413 7.13267 -0.0125157 
1 1.67881 7.19615 -1.75822 
2 1.82901 7.24725 1.776 
1 3.57089 5.42923 -1.83712 
2 3.54526 5.34485 1.87031 
1 1.65103 5.36816 -0.034756 
1 7.25761 7.11497 0.130508 
1 7.02499 5.31976 -1.73441 
2 5.44882 7.15527 -1.8201 
1 7.22684 5.47144 1.77 
1 5.39052 7.02235 1.761 
1 5.33476 5.39013 -0.00459693 
1 10.6666 7.08915 -0.254806 
1 10.5931 5.45878 1.70117 
1 10.6636 5.30718 -1.75179 
1 8.82255 6.98258 -1.75207 
2 9.2303 7.48952 1.76167 
1 8.88689 5.43126 0.0579312 
2 12.1515 7.40979 1.76411 
1 12.5357 7.18353 -1.64235 
1 12.3972 5.30331 -0.0430234 
2 -8.95999 10.8752 -1.30171 
1 -9.04491 10.7729 1.6748 
2 -10.638 8.92845 -1.63415 
1 -10.8862 9.06168 1.6176 
1 -8.90339 8.91919 0.178109 
1 -7.03579 10.6093 0.177162 
1 -5.39745 10.7006 1.97062 
1 -5.22218 10.7909 -1.72297 
1 -7.05009 9.06004 -1.58162 
1 -7.17199 9.00186 1.87653 
1 -5.29454 9.04063 0.0247145 
1 -3.4198 10.7342 0.0981784 
2 -1.79771 10.6899 1.97123 
1 -1.78147 10.7852 -1.6517 
1 -3.5394 9.01535 -1.75005 
2 -3.65298 8.95417 1.92431 
1 -1.81881 9.00051 0.066251 
1 -0.156877 8.90161 1.82708 
1 -3.38401 12.4552 -1.69981 
1 -0.0474624 10.9021 0.097909 
2 0.0542915 8.95871 -1.69572 
1 0.116858 12.5612 1.8147 
1 3.54118 10.4814 0.0740133 
1 1.66524 10.6888 1.83768 
1 1.77243 10.7905 -1.88781 
1 3.47605 9.04753 -1.81414 
1 3.65399 8.90731 1.75075 
1 1.79959 8.96309 0.0326161 
1 7.08373 10.5259 0.0054291 
1 5.34683 10.8391 1.76139 
2 5.27273 10.7111 -1.82059 
1 7.13505 8.98191 -1.90206 
1 7.14155 9.04633 1.94632 
2 5.49963 8.85243 0.0281727 
2 7.30006 12.0894 1.70992 
1 10.648 8.88758 -1.9983 
2 11.1727 9.37738 0.452609 
2 9.16046 10.5921 1.47628 
1 9.12167 10.8054 -1.63524 
1 8.83045 8.81545 -0.277242 
2 -5.34128 12.4303 0.158265 
1 -7.0932 12.6375 -1.48104 
1 -7.16108 12.4504 1.67155 
2 -5.10324 14.1731 -1.7848 
1 -1.72188 12.5237 0.114537 