ITEM: TIMESTEP
1850000
ITEM: NUMBER OF ATOMS
1289
ITEM: BOX BOUNDS pp pp pp
-100 100
-100 100
-100 100
ITEM: ATOMS type x y z 
1 -1.86107 -6.92731 -12.6041 
1 -3.8459 -5.20904 -12.5866 
1 -0.190345 -5.32924 -12.5151 
1 1.59108 -6.98781 -12.5056 
1 3.50069 -5.44624 -12.4157 
1 -7.23921 -1.77628 -12.4439 
2 -5.54614 -3.55358 -12.347 
1 -5.48578 -0.0992598 -12.5273 
2 -1.86725 -2.00439 -14.2761 
2 -3.69778 -1.9132 -12.4676 
1 -2.01004 -3.77038 -12.6097 
1 -0.0953104 -1.75608 -12.4576 
1 -3.81565 -0.074072 -14.4008 
1 0.100433 -3.53382 -14.2921 
2 3.45063 -3.63299 -14.1033 
1 1.61181 -3.44537 -12.4307 
1 3.45365 -1.84418 -12.4228 
1 1.81865 -1.76747 -14.446 
2 1.59603 0.0213173 -12.351 
1 5.22567 -1.95765 -14.359 
2 7.07438 -1.89052 -12.6562 
2 5.23409 -3.58906 -12.3731 
1 -1.54379 -12.5554 -7.19626 
1 1.72639 -12.3437 -7.01205 
1 -9.15791 -9.17374 -7.09139 
2 -5.33201 -10.799 -8.5722 
1 -5.46732 -9.11199 -10.5997 
1 -7.13656 -9.13912 -8.69848 
1 -5.35337 -8.9896 -6.98619 
1 -7.21292 -10.8791 -7.043 
1 -1.85966 -10.8159 -9.03298 
1 -1.90916 -8.81797 -10.955 
1 -3.47899 -10.7528 -7.11614 
2 -3.63602 -8.99986 -8.92958 
1 -1.93421 -8.93494 -7.13221 
1 -0.18164 -8.74121 -9.09593 
1 -0.00688255 -10.4821 -10.6702 
2 -0.0806733 -10.5813 -7.1488 
1 1.85675 -8.95666 -10.8501 
2 1.7877 -10.6162 -8.91822 
1 3.62768 -10.7086 -7.18039 
2 3.47425 -8.8291 -8.95633 
1 1.84254 -8.92872 -7.13764 
1 5.32898 -10.5969 -8.92867 
1 7.15565 -8.799 -8.8773 
1 5.33452 -8.81581 -6.98104 
1 7.13717 -10.492 -7.00318 
1 5.32917 -8.7368 -10.5555 
1 9.11424 -8.67783 -7.11679 
1 -10.7628 -5.32863 -8.99607 
1 -8.84593 -5.44629 -10.5173 
1 -9.00296 -7.28993 -9.03516 
2 -8.99859 -5.43845 -7.28469 
2 -10.7633 -7.14452 -7.07867 
1 -7.0562 -7.25945 -10.5202 
1 -5.56319 -5.32258 -10.7695 
1 -7.1332 -5.42379 -8.96803 
1 -5.35239 -7.25537 -8.78364 
2 -7.0912 -7.2529 -7.16262 
1 -5.453 -5.4591 -7.22952 
2 -3.83016 -7.00871 -10.8034 
1 -2.02983 -5.35619 -10.6828 
1 -1.99816 -6.98075 -9.10359 
1 -3.853 -5.32142 -8.92978 
1 -3.67511 -7.24492 -7.04112 
2 -2.02705 -5.4839 -7.02132 
2 -0.118769 -5.34033 -9.04297 
2 -0.124645 -7.25036 -7.2822 
1 -0.0997416 -7.06634 -10.7534 
2 3.40354 -7.01888 -10.754 
1 1.62202 -5.23287 -10.7846 
1 1.68382 -7.16653 -9.00328 
1 3.43335 -5.24829 -8.9921 
1 3.68716 -7.13586 -7.09822 
2 1.88641 -5.36143 -7.26482 
1 7.10794 -6.92884 -10.5317 
1 5.27215 -5.37174 -10.6358 
1 5.29672 -7.09305 -8.85316 
1 6.99073 -5.28774 -8.87454 
1 7.01757 -6.97408 -7.24818 
1 5.2772 -5.31864 -7.19142 
1 8.876 -5.0431 -10.7186 
1 10.6471 -4.94426 -8.90837 
1 10.6997 -6.73162 -7.17782 
2 8.94908 -6.83882 -8.83775 
1 8.82195 -5.06421 -7.03023 
1 -12.4825 -1.88624 -7.0343 
1 -10.6857 -1.91891 -8.69747 
1 -8.94003 -1.72082 -10.4687 
1 -10.8423 -3.64556 -7.18624 
1 -8.80257 -3.56911 -8.81074 
1 -8.90168 -1.88507 -7.12225 
1 -8.9053 -0.0355574 -8.6736 
1 -10.8178 0.0678721 -10.0427 
1 -10.929 -0.00823123 -7.32208 
1 -7.24435 -3.50797 -10.6015 
1 -5.46771 -1.7353 -10.693 
1 -7.17808 -1.61909 -8.88844 
1 -5.40792 -3.45669 -8.98783 
1 -7.09926 -3.71779 -7.07945 
1 -5.34219 -1.90342 -7.1489 
1 -5.2687 -0.0670403 -8.91978 
1 -7.03829 -0.0014367 -7.05977 
1 -7.2567 0.000213327 -10.619 
1 -3.68573 -3.61475 -10.686 
1 -1.95712 -1.70783 -10.7978 
1 -3.57636 -1.79577 -8.90217 
2 -1.97072 -3.51561 -8.89719 
1 -3.67361 -3.62533 -7.06473 
1 -1.89538 -1.77581 -7.05239 
1 -0.0525955 -3.61592 -7.27443 
1 -0.180669 -1.80941 -9.07294 
1 -0.36169 -3.49561 -10.849 
1 -3.5432 -0.0553161 -7.09934 
1 3.42046 -3.61656 -10.7394 
1 1.67128 -1.76243 -10.6577 
1 1.45013 -3.43187 -9.04762 
2 3.5079 -1.82402 -8.96382 
1 3.52123 -3.48345 -7.21939 
1 1.6462 -1.83252 -7.19539 
1 7.08208 -3.48656 -10.6701 
1 5.30171 -1.78082 -10.7306 
1 7.17373 -1.70793 -8.95174 
1 5.33694 -3.57933 -9.06449 
1 6.98081 -3.56714 -7.09469 
1 5.22005 -1.85698 -7.16802 
1 8.96145 -1.84906 -10.8124 
1 10.8638 -3.48702 -6.97883 
1 8.72833 -3.52352 -8.87452 
2 8.84794 -1.82709 -7.20865 
2 10.6103 -1.91903 -9.00049 
1 12.5101 -1.73562 -7.23235 
1 -5.42517 -12.5311 -3.31834 
1 -1.81011 -13.9917 -5.16738 
1 -3.66687 -12.5712 -5.23489 
1 -1.9057 -12.4006 -3.43552 
2 -0.0256553 -14.3533 -3.4433 
1 0.0965711 -12.5632 -5.20033 
1 1.98079 -14.3954 -1.66388 
1 -10.773 -8.8768 -5.13877 
1 -9.01185 -10.7474 -5.22582 
2 -9.0454 -9.03764 -3.46403 
1 -7.25052 -10.972 -3.54111 
1 -5.37308 -10.7884 -5.32067 
1 -7.16356 -9.07015 -5.29525 
1 -5.55148 -9.05973 -3.49117 
2 -1.7936 -10.7542 -5.31483 
1 -3.6167 -10.7242 -3.43031 
1 -3.64656 -8.95022 -5.22716 
2 -1.93676 -8.86305 -3.46079 
1 -0.0960726 -8.85705 -5.28345 
2 2.04726 -12.6855 -3.56863 
1 3.57945 -12.4997 -5.35951 
2 0.198474 -10.7145 -3.53045 
1 1.74952 -10.5122 -5.40082 
1 3.50267 -10.6604 -3.54035 
1 3.50746 -9.00582 -5.3696 
1 1.78187 -8.80735 -3.55415 
1 5.36358 -12.4964 -3.7654 
2 7.09438 -10.6284 -3.76682 
1 5.27577 -10.6357 -5.51109 
1 7.17277 -8.6683 -5.42753 
2 5.37555 -8.76701 -3.60119 
1 8.98071 -10.3452 -5.31486 
2 9.10804 -8.74301 -3.525 
1 10.8481 -8.63618 -5.26015 
1 -12.7355 -5.35711 -3.28224 
1 -10.8027 -7.05663 -3.47692 
1 -10.8848 -5.40152 -5.39637 
2 -8.97802 -7.18784 -5.32282 
1 -8.92237 -5.34949 -3.54552 
1 -7.11939 -7.12078 -3.56302 
1 -7.11936 -5.36152 -5.39548 
1 -5.45091 -7.28136 -5.29653 
1 -5.42771 -5.42746 -3.49057 
1 -1.79835 -7.22136 -5.27844 
1 -3.70197 -7.19848 -3.55578 
1 -3.73181 -5.45781 -5.20663 
1 -1.89798 -5.36142 -3.60724 
2 -0.0399479 -5.31899 -5.32228 
1 -0.102424 -7.09132 -3.51183 
2 1.77239 -7.15695 -5.35618 
1 3.60835 -7.05296 -3.81424 
1 3.49096 -5.30282 -5.42967 
1 1.62928 -5.34052 -3.59163 
1 7.12096 -7.0451 -3.44339 
1 5.38856 -6.99099 -5.39151 
1 7.09673 -5.20744 -5.39053 
1 5.36953 -5.42802 -3.54923 
1 10.8977 -6.94532 -3.52771 
1 10.7883 -5.11149 -5.25997 
2 8.9063 -7.00703 -5.45547 
2 8.86149 -5.27814 -3.60967 
1 12.7634 -5.24927 -3.29135 
1 -14.2149 -3.34892 -3.49003 
1 -12.5046 -3.70925 -5.34844 
2 -12.3019 -1.70271 -3.62184 
1 -10.7112 -1.8961 -5.43666 
2 -10.8338 -3.70754 -3.49694 
1 -8.90893 -3.65883 -5.42484 
2 -9.04767 -1.86743 -3.55855 
2 -9.03748 -0.0253161 -5.5648 
2 -7.07551 -1.9559 -5.33614 
1 -7.06914 -3.61755 -3.4255 
1 -5.24197 -3.63504 -5.30974 
1 -5.3679 -1.81702 -3.44841 
2 -7.2373 0.0922187 -3.5321 
1 -3.56932 -1.94896 -5.25244 
1 -1.841 -3.5105 -5.29384 
1 -3.71865 -3.6164 -3.54905 
1 -1.89749 -1.74876 -3.43819 
1 -0.124234 -3.52787 -3.57719 
1 0.00148266 -1.70495 -5.37807 
1 -1.86136 -0.0467835 -5.28712 
1 1.7508 -3.61611 -5.39292 
1 3.56086 -1.71787 -5.48365 
1 3.51626 -3.52804 -3.66659 
2 1.71219 -1.78126 -3.56264 
1 3.48012 -0.077853 -3.59431 
1 7.13853 -1.64468 -5.33644 
1 7.17553 -3.38842 -3.56179 
1 5.30122 -3.62736 -5.33936 
1 5.17988 -1.80484 -3.56253 
1 10.6171 -1.7026 -5.24843 
1 10.693 -3.563 -3.51154 
1 8.83083 -3.45587 -5.2577 
1 8.97996 -1.64876 -3.62025 
1 12.1841 -1.61691 -3.45046 
2 12.532 -3.34842 -5.17285 
2 14.1258 -2.99879 -3.25967 
2 14.127 -0.208492 -3.61674 
1 -5.14907 -12.6316 0.157948 
1 -1.89777 -14.2822 -1.8419 
1 -3.48301 -14.2361 0.283463 
1 -1.46435 -14.2859 1.72529 
1 0.0041008 -14.5146 -0.157416 
1 3.77578 -14.1814 0.0185063 
2 1.53578 -14.0872 1.80514 
2 1.8368 -12.4474 -0.0381893 
1 3.52666 -12.312 1.72098 
1 5.43669 -14.0996 -1.64911 
2 7.0554 -12.2672 -1.69987 
1 -10.8469 -10.5304 0.137737 
1 -10.8665 -9.05241 -1.79897 
1 -8.93353 -10.7424 -1.52633 
1 -8.99337 -8.88135 -0.0286817 
2 -10.773 -8.74537 1.76467 
2 -8.89936 -10.8153 1.7344 
2 -7.17205 -12.506 -1.30033 
2 -7.0859 -12.5833 1.53596 
1 -7.19216 -10.5111 0.142491 
2 -5.34367 -10.6894 -1.65447 
2 -5.22527 -10.646 1.69938 
1 -7.12329 -9.02529 -1.83874 
1 -7.15811 -8.83728 1.83677 
1 -5.24497 -8.86259 0.0732997 
1 -3.18342 -12.3715 1.74636 
1 -3.52302 -12.6093 -1.73393 
1 -1.75596 -12.5394 -0.00120653 
1 -3.36631 -10.774 0.073565 
1 -1.7747 -10.7749 -1.70931 
1 -1.69735 -10.5804 1.79179 
1 -3.59714 -8.96377 -1.59144 
1 -3.5019 -8.97731 1.9188 
1 -1.68752 -8.8564 0.0181799 
1 0.138318 -8.71178 1.79888 
1 0.0248377 -8.93743 -1.74988 
1 -0.0322995 -12.238 1.71608 
1 -0.0907458 -10.5358 0.0186226 
2 0.0109581 -12.5046 -1.74383 
1 3.67815 -12.3546 -1.78846 
1 3.74724 -10.5862 -0.0202395 
1 1.89873 -10.6578 -1.7076 
1 1.83025 -10.5502 1.7202 
1 3.54837 -8.8249 -1.90348 
1 3.6258 -8.90846 1.69941 
1 1.80563 -8.88747 0.0506218 
1 5.27491 -12.4375 0.0415513 
1 7.16208 -12.2794 1.55174 
1 7.11882 -10.5314 -0.109235 
1 5.34885 -10.5581 -1.78632 
1 5.4733 -10.5941 1.63358 
1 7.18597 -8.80999 -1.98831 
2 7.24423 -8.85898 1.76786 
1 5.32124 -8.77666 -0.182772 
1 9.03996 -12.0608 -0.108988 
1 9.18063 -10.7284 -2.13317 
1 10.9888 -8.82551 -1.72917 
1 10.8411 -8.7521 1.70436 
2 9.05695 -9.03857 -0.163818 
1 9.05235 -10.6748 1.89731 
1 -12.5023 -7.18654 -1.57642 
1 -12.6137 -5.32557 0.125956 
2 -10.675 -7.08943 0.00485128 
1 -10.7474 -5.42108 -1.68804 
1 -10.7888 -5.43575 1.86373 
1 -8.90826 -7.21284 -1.90315 
1 -8.87104 -7.00217 1.95504 
1 -8.8896 -5.46094 -0.0359103 
1 -7.18445 -7.22198 -0.0692457 
1 -7.19595 -5.45323 -1.71711 
1 -5.40275 -7.3292 -1.69684 
2 -7.13099 -5.44415 1.7361 
1 -5.27881 -7.12899 1.78781 
1 -5.32158 -5.39446 -0.0516365 
1 -3.56344 -7.23077 0.0187964 
1 -1.82961 -7.03447 -1.77071 
1 -1.80024 -7.25434 1.72688 
1 -3.75258 -5.53759 -1.84232 
1 -3.67232 -5.42273 1.71032 
2 -1.90057 -5.36128 0.100026 
1 -0.131338 -5.29185 -1.83387 
1 0.0562893 -7.04966 -0.0635679 
1 0.0042911 -5.42546 1.79471 
1 3.46728 -7.14802 -0.109777 
2 1.73454 -7.04285 -1.76664 
1 1.80438 -7.06689 1.69127 
2 3.57912 -5.28289 -1.95542 
1 3.50507 -5.28279 1.71782 
1 1.68034 -5.27867 0.0483755 
1 7.27302 -7.11254 -0.149827 
1 5.33932 -7.0986 -1.83684 
1 7.17161 -5.39042 -1.69329 
1 5.38021 -7.10255 1.62065 
2 7.19166 -5.43456 1.74357 
1 5.41193 -5.33119 0.0203132 
1 10.716 -7.05632 -0.100678 
1 10.5498 -5.25789 1.66763 
1 10.7425 -5.27545 -1.7751 
1 9.11307 -6.9921 -1.76035 
1 8.96733 -7.04686 1.69667 
1 8.93137 -5.29427 -0.0671519 
1 12.6529 -7.0346 -1.6899 
1 12.4174 -6.9795 1.54692 
2 12.5114 -5.28107 -0.0480196 
1 -14.0766 -3.36775 0.272075 
2 -14.0914 -1.60081 -1.62376 
1 -14.1358 -1.57913 1.91229 
1 -12.4321 -3.51793 -1.67493 
1 -14.2415 0.154243 0.0228091 
1 -12.3414 -1.66185 0.14124 
1 -12.2772 -3.50064 1.81429 
1 -10.7078 -3.63398 0.0106193 
1 -10.7577 -1.72444 -1.51635 
1 -10.6308 -1.71867 1.71966 
1 -8.93895 -3.62336 -1.53631 
2 -9.02553 -3.57182 1.80312 
1 -8.8439 -1.75317 0.0156548 
1 -9.00548 -0.0228764 -1.71053 
1 -7.15388 -3.73196 -0.0259658 
1 -7.18855 -1.81527 -1.76525 
1 -7.08638 -1.84391 1.72231 
1 -5.32723 -3.66058 -1.77623 
2 -5.32196 -3.56126 1.7441 
2 -5.4549 -1.77896 -0.146385 
2 -5.4919 0.070929 1.82844 
1 -7.16178 0.0611784 -0.0331723 
1 -3.64159 -3.59764 0.0431647 
1 -3.63609 -1.75542 -1.78964 
2 -2.08965 -3.61876 -1.85516 
2 -3.49164 -1.69299 1.7917 
1 -1.80007 -3.59225 1.77757 
1 -1.94519 -1.82332 -0.0583529 
1 -0.242354 -1.83477 1.66854 
1 -0.233945 -1.7897 -1.6199 
1 -0.218786 -3.58417 -0.0269274 
1 -1.81288 0.0201802 1.73465 
2 1.68647 -0.0515396 1.71679 
2 3.60307 -3.43129 -0.00683504 
2 1.62781 -3.61092 -1.78381 
1 3.49579 -1.74267 -1.80415 
1 1.57866 -3.49751 1.80555 
1 3.41012 -1.8734 1.86394 
1 1.77477 -1.88216 -0.0521782 
2 3.56836 -0.050081 -0.114759 
1 7.11043 -3.59217 -0.0288975 
1 7.10579 -1.68455 -1.91776 
1 7.13201 -1.75479 1.79253 
1 5.3901 -3.59407 -1.80974 
1 5.39036 -3.61087 1.87962 
2 5.44132 -1.81654 -0.0566998 
1 5.23335 0.0494423 1.8011 
1 7.1081 0.0850411 -0.0600558 
2 12.3259 0.0421165 -1.59277 
1 10.6907 -3.51072 -0.0724988 
1 10.6608 -1.82815 1.80019 
1 10.4916 -1.60965 -1.81529 
1 8.95055 -3.49253 -1.78091 
1 8.92007 -3.55947 1.75458 
2 8.9772 -1.70543 -0.0481516 
1 12.4111 -3.4531 -1.68222 
2 12.5401 -3.52919 1.54779 
2 8.78403 0.129027 1.69746 
1 8.86575 0.121313 -1.73244 
1 10.7381 0.181357 0.234211 
1 12.4623 -1.63968 0.109852 
2 14.3835 -3.50857 -0.36162 
1 14.4473 -1.32794 -1.50359 
1 14.3676 -1.74847 1.50411 
2 -5.15416 -12.6012 3.38865 
2 -3.07648 -14.1916 3.51163 
1 -0.00642072 -14.2562 3.60913 
1 3.21008 -14.0574 3.60083 
1 5.27811 -12.5344 3.40885 
1 -10.9094 -10.7855 3.42499 
1 -10.6752 -9.06649 5.19604 
2 -8.87993 -8.95977 3.56539 
2 -9.0409 -10.8513 5.2402 
1 -7.16139 -10.9341 3.6038 
1 -5.31893 -11.0609 5.36974 
1 -7.20857 -9.03298 5.3885 
2 -5.40695 -9.07197 3.55968 
2 -3.24551 -12.5852 5.50958 
1 -1.5661 -12.4832 3.54028 
1 -1.71602 -10.5151 5.40709 
1 -3.36886 -10.7569 3.6001 
2 -3.57404 -8.97106 5.44373 
1 -1.69165 -8.94522 3.44248 
1 0.0964849 -10.5435 3.59916 
1 3.32974 -12.5121 5.3976 
2 0.110575 -12.2616 5.2757 
1 0.113224 -8.89276 5.25527 
1 1.72205 -12.3245 3.46635 
1 1.81032 -10.5858 5.29078 
2 3.54134 -10.7027 3.61011 
1 3.55152 -8.87185 5.16109 
1 1.85908 -8.86125 3.38281 
1 7.149 -10.838 3.56393 
1 5.31137 -10.8281 5.35501 
2 7.22428 -8.81919 5.38752 
2 5.43884 -8.85358 3.41569 
1 9.15297 -10.4997 5.40001 
2 9.07784 -8.88557 3.53118 
2 10.6955 -8.49829 5.58169 
1 -12.4113 -5.16676 3.55672 
1 -10.7682 -7.09843 3.75793 
1 -10.7976 -5.39706 5.37754 
1 -8.82302 -7.11531 5.32836 
1 -8.97538 -5.3639 3.66827 
1 -7.1747 -7.18442 3.6629 
1 -7.18013 -5.27214 5.32554 
1 -5.40593 -7.23254 5.2897 
2 -5.3192 -5.46172 3.63979 
1 -1.78623 -7.19434 5.28084 
1 -3.51198 -7.27872 3.59003 
1 -3.5509 -5.38275 5.38041 
2 -1.90101 -5.37862 3.4745 
1 0.0708842 -7.11434 3.49915 
2 0.02186 -5.4226 5.31558 
1 1.8934 -7.0638 5.20905 
1 3.63248 -7.11278 3.38849 
1 3.56104 -5.4647 5.33074 
1 1.82549 -5.29041 3.41758 
1 7.22294 -7.16623 3.60933 
1 5.35451 -7.16631 5.26523 
2 7.05789 -5.42683 5.37896 
2 5.3166 -5.33182 3.4985 
1 10.6884 -7.0472 3.41147 
1 10.8564 -5.5832 5.35258 
1 8.91758 -7.01945 5.49671 
1 9.02324 -5.39253 3.60022 
2 12.4936 -5.23406 3.32259 
1 -13.9431 -3.21326 3.58865 
1 -12.5415 0.0575137 5.32238 
1 -12.4442 -3.43412 5.57973 
1 -12.1991 -1.67621 3.67962 
1 -10.6125 -1.62401 5.47644 
1 -10.7194 -3.55944 3.79918 
1 -8.9378 -3.46221 5.54119 
2 -9.04303 -1.68353 3.71075 
1 -8.8911 0.101051 5.53841 
1 -7.22562 -1.69208 5.57672 
2 -7.15844 -3.44659 3.71245 
1 -5.31714 -3.55722 5.37671 
1 -5.4021 -1.71079 3.59771 
2 -3.62616 -1.69167 5.32584 
2 -1.91597 -3.46128 5.27836 
1 -3.55749 -3.56098 3.57984 
1 -1.90889 -1.57285 3.51017 
1 -1.729 -0.039195 5.50298 
1 0.00532495 0.00356215 3.55158 
1 -0.146366 -3.47464 3.50111 
1 -0.124965 -1.70044 5.32368 
1 1.67367 -3.46855 5.33209 
1 3.47246 -1.73909 5.2893 
1 3.56135 -3.57182 3.56676 
1 1.76278 -1.86484 3.59035 
1 1.73892 -0.0162683 5.40661 
1 7.19805 -1.83346 5.24848 
1 7.20403 -3.43831 3.49467 
1 5.34394 -3.34261 5.20515 
1 5.26977 -1.71138 3.4613 
1 5.3653 -0.13829 5.37307 
2 10.7685 -1.89612 5.26238 
1 10.6877 -3.62702 3.45346 
2 8.97938 -3.73728 5.34904 
1 8.87086 -1.83505 3.54625 
1 8.81919 0.0433816 5.31754 
2 14.3146 0.0669228 3.31806 
2 12.477 -1.81995 3.47924 
1 12.7213 -3.86872 5.41048 
1 14.4172 -3.51848 3.3946 
1 14.3195 -1.87147 5.08908 
1 -8.86534 -9.13959 7.0512 
1 -5.34536 -9.14263 10.5256 
1 -5.34278 -10.7687 8.70237 
1 -7.09739 -10.8841 6.99958 
2 -7.14817 -9.09407 8.7292 
1 -5.43948 -8.88375 6.94213 
1 -1.4444 -12.5121 7.10149 
2 -1.87882 -8.86445 10.7748 
1 -1.75984 -10.7911 8.80838 
1 -3.56083 -10.7717 7.10127 
1 -3.56006 -8.9881 8.82658 
1 -1.74955 -8.81824 7.15936 
1 0.0626048 -10.4916 7.17426 
1 -0.0747519 -8.8753 8.91156 
1 1.58386 -12.3358 7.11583 
1 1.85223 -10.5662 8.85917 
1 3.55734 -10.6279 6.89666 
1 3.4878 -8.90797 8.74496 
1 1.79067 -8.78999 7.04465 
1 1.6432 -8.85915 10.7138 
1 7.20353 -10.507 7.1355 
1 5.19642 -9.18423 10.4468 
1 5.27059 -10.4737 8.55623 
1 7.17747 -8.83211 8.92235 
1 5.34983 -8.84889 7.0556 
1 9.0467 -8.63834 7.41058 
2 -10.4221 -7.10993 7.09666 
1 -10.5357 -5.44658 9.02846 
1 -8.78797 -7.27196 8.97117 
1 -8.80039 -5.38881 7.25049 
1 -8.62851 -5.5035 10.5853 
1 -7.06419 -7.36841 10.7688 
1 -7.02007 -5.37481 8.86573 
1 -5.40714 -7.24137 8.73187 
1 -7.24161 -7.21677 7.12665 
1 -5.44866 -5.37891 6.97245 
1 -5.54256 -5.38665 10.6683 
2 -3.80007 -7.30328 10.7207 
1 -1.95877 -5.24781 10.7071 
1 -1.99024 -7.16271 8.89986 
2 -3.71177 -5.45297 8.89971 
1 -3.58557 -7.04283 7.03004 
1 -1.81374 -5.30844 7.15195 
2 -0.0848434 -5.31537 8.96261 
1 -0.104979 -7.15611 7.13388 
1 -0.156677 -7.04085 10.5789 
1 3.56484 -7.08932 10.6726 
1 1.79542 -5.32979 10.4799 
1 1.76503 -7.21131 8.97013 
1 3.64054 -5.34432 8.98427 
1 3.6744 -7.12576 7.11938 
2 1.77138 -5.4774 7.19492 
1 6.86576 -6.99314 10.6867 
1 5.41945 -5.11326 10.7563 
1 5.24654 -7.06637 8.91518 
1 7.05647 -5.3408 8.9727 
1 7.12863 -7.10844 7.30942 
2 5.34212 -5.35705 7.11847 
1 8.65655 -5.06542 10.8978 
1 10.7157 -4.91161 9.24626 
1 10.6725 -6.71102 7.50448 
1 8.96789 -6.85622 9.21202 
1 8.83363 -5.24213 7.27949 
2 -10.5948 -3.79286 7.31004 
2 -12.1651 -1.6442 7.36714 
1 -9.18103 -1.58887 10.5802 
1 -11.0829 -2.77231 9.51054 
1 -8.80194 -3.64298 8.98959 
2 -9.19913 -1.79112 7.55023 
1 -11.2117 -0.412406 9.38011 
1 -7.25182 -3.51215 10.778 
1 -5.52174 -1.6921 10.7928 
1 -7.21738 -1.67347 9.03788 
2 -5.47357 -3.5124 8.86878 
1 -7.16029 -3.5017 7.2334 
1 -5.31149 -1.69153 7.10947 
1 -7.42169 0.162577 10.6349 
1 -3.80157 -3.65573 10.7608 
1 -2.03701 -1.90319 10.7503 
1 -3.68857 -1.73871 8.91684 
2 -1.88264 -3.47306 8.94835 
1 -3.59779 -3.57721 7.15724 
1 -1.92488 -1.72371 7.29999 
1 -0.00870247 -1.68184 9.01806 
2 -0.0451406 -3.39465 7.14548 
1 -3.65688 -0.0592147 10.6657 
1 -1.75142 0.0520133 9.06091 
2 0.0823734 0.0430977 7.27011 
1 -0.161068 -3.46048 10.688 
1 1.85314 -1.80932 7.17171 
2 3.53704 -3.64058 7.02783 
1 1.83904 -1.88354 10.7142 
1 1.73437 -3.47567 8.925 
1 3.57931 -1.83015 8.93844 
1 3.57352 -3.62442 10.6659 
1 1.73269 -0.0147146 9.07044 
1 3.50113 -0.261374 10.7779 
1 7.04869 -1.78372 8.90203 
1 5.3098 -3.56899 8.88171 
1 7.1054 -3.37712 10.7362 
1 5.25782 -1.83528 10.6981 
1 7.14654 -3.49883 7.22968 
1 5.32068 -1.81516 7.19189 
1 5.31816 -0.197417 9.02057 
2 8.94414 -0.0991466 8.97023 
1 9.16748 -1.75203 10.7037 
1 12.3914 0.115428 8.75967 
1 8.81816 -3.45451 8.84486 
1 8.87281 -1.83016 7.12064 
2 10.7279 -1.92595 8.61386 
1 10.8421 -3.81946 6.98836 
2 12.6531 -1.74452 6.91129 
1 -0.134864 -8.72555 12.3846 
1 -1.85851 -7.00109 12.4162 
1 -3.85391 -5.3842 12.5 
1 -0.184088 -5.27604 12.2502 
1 -0.318111 -6.69926 14.1324 
1 1.81534 -5.24771 14.1485 
2 1.5976 -6.90547 12.3671 
1 3.57925 -5.37943 12.635 
1 -7.22912 -1.43723 12.3142 
1 -5.50795 -3.45353 12.4541 
1 -5.35121 -0.0463775 12.6043 
1 -1.74811 -0.115994 12.4412 
1 -3.53301 0.0460227 14.426 
2 -0.251592 -3.87733 14.0569 
1 -3.63118 -1.78956 12.4605 
1 -2.08388 -3.61255 12.4264 
1 -1.96881 -1.80089 14.1748 
1 -0.143036 -1.83403 12.4088 
1 -0.00815277 -0.223002 14.2165 
1 3.40554 -2.03186 12.4391 
1 1.71496 -3.74946 12.2393 
1 1.64409 -2.21689 14.0529 
1 5.27203 -0.119005 12.6164 
2 5.2439 -3.46867 12.5413 
1 7.23914 -1.7882 12.3744 
1 -7.32823 1.63448 -12.3644 
1 -5.43806 3.49112 -12.5021 
2 -1.76227 1.92403 -14.2907 
2 -3.76941 1.82155 -12.6122 
1 -1.87168 3.70931 -12.4489 
2 -0.145074 1.91136 -12.4684 
2 -1.9456 -0.0284028 -12.7719 
2 0.0465579 -0.0675352 -14.4035 
1 -0.00394895 3.57605 -14.509 
1 3.52261 3.55771 -14.2247 
1 3.45609 1.80348 -12.5113 
2 1.79303 3.58236 -12.4523 
1 1.81837 1.84157 -14.3239 
2 3.42357 -0.0999504 -14.2855 
1 5.14942 1.64205 -14.3427 
1 6.95243 1.769 -12.5838 
1 5.1526 3.58934 -12.5657 
2 5.32532 -0.143448 -12.535 
1 -1.87997 7.00909 -12.5074 
1 -3.76106 5.22468 -12.5719 
1 -0.0249151 5.27887 -12.2986 
1 1.62926 7.04203 -12.5096 
1 3.53776 5.41552 -12.4637 
1 -12.564 1.82958 -6.94907 
1 -10.9468 2.05633 -8.83127 
1 -9.07135 1.65164 -10.6468 
2 -8.8923 3.74357 -9.10576 
2 -8.95316 1.94903 -7.23966 
1 -10.8994 3.95436 -7.35706 
1 -7.31302 3.5615 -10.8543 
2 -5.41123 1.70535 -10.6538 
2 -7.17634 1.7626 -8.81636 
1 -5.60772 3.61646 -9.01012 
1 -7.20304 3.79552 -7.14987 
2 -5.39578 1.78516 -7.06501 
1 -3.75536 3.58676 -10.6811 
1 -2.03151 1.78836 -10.8393 
1 -3.64712 1.82606 -8.9674 
2 -1.86715 3.59384 -8.96913 
2 -3.76721 3.6886 -7.17154 
1 -1.75697 1.71066 -7.12323 
1 -0.235804 1.69312 -8.93771 
1 -0.0914728 3.61158 -7.18133 
1 -0.187425 3.48788 -10.6468 
1 -0.283897 -0.0471586 -10.7028 
1 -3.64277 0.0298628 -10.6951 
1 -1.86484 -0.107737 -8.83192 
1 3.60894 3.59813 -10.6752 
1 1.66837 1.85333 -10.6315 
1 3.52505 1.69611 -9.02372 
2 1.73315 3.6258 -8.85511 
1 3.48394 3.54452 -7.18862 
2 1.70563 1.74554 -7.12314 
1 3.54746 -0.039762 -10.7576 
2 1.59169 0.00882506 -9.00543 
1 3.5171 -0.0085234 -7.15365 
1 -0.186157 -0.121089 -7.19373 
2 6.89942 3.46578 -10.6477 
1 5.21404 1.73236 -10.7895 
1 7.09533 1.88106 -8.90075 
1 5.29704 3.45446 -8.90715 
1 7.00245 3.44328 -7.11557 
1 5.2026 1.83722 -7.17117 
2 7.13774 0.142271 -7.0878 
2 7.11898 0.0196893 -10.6715 
2 5.27881 -0.0377692 -8.91383 
1 8.79623 0.149371 -8.83918 
1 8.86765 1.9467 -10.8553 
2 10.741 2.06794 -9.06445 
1 8.78989 3.5083 -8.93881 
1 8.99436 1.90887 -7.19968 
1 10.815 3.78194 -7.19061 
2 10.706 0.126776 -7.41278 
2 12.4367 1.9313 -7.02853 
1 10.7151 0.0216184 -10.3969 
1 -10.5906 5.52605 -9.11839 
1 -10.695 7.11778 -7.03562 
1 -9.04373 7.24142 -8.85782 
1 -8.83698 5.38785 -7.08574 
1 -8.64714 5.59598 -10.8867 
2 -5.6144 5.48743 -10.8587 
1 -7.17671 7.42728 -10.5043 
1 -7.16174 5.53218 -8.90664 
1 -5.43854 7.37673 -8.95765 
2 -7.2445 7.29532 -7.17546 
1 -5.56907 5.47265 -7.21033 
2 -3.73052 7.29971 -10.8638 
1 -1.95558 5.48526 -10.6971 
1 -1.8587 7.24854 -8.84033 
2 -3.83344 5.51096 -8.99287 
1 -3.69858 7.13986 -7.15255 
1 -1.94552 5.35622 -7.05041 
2 -0.163429 5.41139 -8.96875 
1 -0.122515 7.18166 -10.6635 
1 -0.131839 7.13736 -7.13905 
1 3.56261 7.12766 -10.6476 
1 1.81931 5.34102 -10.6536 
2 1.70902 7.25863 -8.91386 
1 3.55706 5.33311 -8.89166 
1 3.53988 7.1931 -7.08107 
1 1.7494 5.46834 -7.10104 
1 6.96596 7.04887 -10.6096 
1 5.2541 5.39127 -10.6939 
1 7.06767 5.22223 -8.87172 
1 5.25657 7.02188 -8.83426 
1 7.22014 6.99724 -7.17776 
1 5.37631 5.21992 -7.13018 
1 8.62948 5.26305 -10.7044 
1 10.6553 5.07829 -9.14224 
1 8.83288 7.08848 -9.00743 
1 8.75886 5.13669 -7.15696 
2 10.4071 6.73833 -7.20827 
1 -9.10941 9.14156 -7.03704 
1 -5.09141 9.3921 -10.6055 
1 -5.14656 10.7971 -8.72729 
1 -7.0894 9.33249 -8.98538 
1 -5.38677 8.91975 -7.07138 
1 -7.08556 10.7244 -6.91563 
2 -1.69753 8.84545 -10.7581 
2 -1.85243 10.5879 -8.89982 
1 -3.49144 10.8447 -7.05913 
1 -3.51838 8.881 -8.8551 
1 -1.85922 9.00026 -7.06436 
1 -0.163956 12.3952 -8.78088 
1 -0.0820994 9.00332 -8.83661 
1 -0.0957625 10.7724 -6.9946 
1 1.73402 8.90418 -10.8802 
1 1.60459 10.7104 -9.02984 
1 3.47203 10.772 -7.22933 
1 3.54032 9.04187 -8.99384 
1 1.79623 8.95775 -7.08544 
2 1.66565 12.5085 -7.14215 
1 5.19049 8.70844 -10.6924 
1 5.25368 10.6092 -8.9791 
1 7.13799 10.5684 -7.21482 
1 6.92015 8.72707 -8.90633 
1 5.29149 8.87416 -7.18524 
1 9.03902 8.7682 -7.08632 
1 -1.64857 12.6365 -6.97763 
2 -14.2185 3.63269 -3.11508 
1 -14.2184 0.172972 -3.46407 
1 -12.7807 -0.0161724 -5.42881 
2 -12.3597 3.66868 -5.23901 
1 -12.4588 1.89522 -3.47312 
2 -10.748 1.71987 -5.306 
1 -10.6429 3.72365 -3.40726 
1 -9.04694 3.69219 -5.46642 
2 -8.9489 1.88659 -3.53557 
1 -10.706 0.0198712 -3.49086 
1 -7.15679 1.92968 -5.39261 
2 -7.22822 3.793 -3.54975 
1 -5.45047 3.67588 -5.24933 
1 -5.37525 1.82975 -3.562 
1 -5.34663 -0.127148 -5.34734 
1 -3.68429 1.7282 -5.29317 
1 -1.83442 3.52296 -5.37901 
1 -3.66496 3.60228 -3.66365 
1 -1.85701 1.74114 -3.67594 
1 -0.113706 3.6135 -3.59407 
1 -0.0825903 1.84788 -5.26804 
1 -0.158102 -0.0304372 -3.67345 
1 -3.60634 0.0334625 -3.56889 
1 3.52529 1.7381 -5.3306 
2 1.67996 3.66113 -5.34639 
1 3.55822 3.56455 -3.68368 
2 1.56857 1.72337 -3.61424 
1 1.76537 -0.0102078 -5.4542 
1 7.07241 1.94643 -5.34124 
1 7.09207 3.56631 -3.57486 
1 5.21515 3.59522 -5.42392 
1 5.26644 1.78451 -3.70095 
1 7.10925 0.0304944 -3.68435 
1 5.25269 -0.0785638 -5.38356 
1 10.6349 0.213583 -3.61848 
1 10.694 1.84767 -5.31983 
1 10.6971 3.54988 -3.54076 
2 9.042 3.57205 -5.27539 
1 8.80383 1.77369 -3.54381 
1 8.9356 0.185795 -5.40381 
2 12.3788 -0.0805542 -5.40542 
1 12.5174 1.73583 -3.69294 
1 12.6423 3.55859 -5.19678 
1 14.2191 3.5295 -3.25903 
1 -12.5027 5.45558 -3.27077 
1 -10.7625 7.23622 -3.65021 
1 -10.7575 5.48818 -5.38387 
2 -8.86227 7.18593 -5.29073 
1 -8.90538 5.46102 -3.57113 
1 -7.00141 7.18274 -3.6122 
1 -7.15312 5.47831 -5.36369 
1 -5.314 7.15825 -5.29063 
1 -5.37058 5.43233 -3.6175 
1 -1.93466 7.15433 -5.3609 
1 -3.53396 7.19993 -3.60087 
1 -3.70669 5.42247 -5.29917 
1 -1.90454 5.35453 -3.70923 
2 -0.142645 7.16842 -3.60174 
1 -0.0720659 5.3468 -5.37643 
1 1.70787 7.12613 -5.43151 
2 3.45871 7.24086 -3.6056 
1 3.50517 5.43985 -5.4006 
1 1.77214 5.46641 -3.64503 
1 7.09015 7.05058 -3.6004 
1 7.15335 5.39857 -5.30326 
2 5.31457 7.14166 -5.43989 
1 5.42223 5.33342 -3.64049 
1 10.5049 7.04293 -3.53903 
1 10.8947 5.32811 -5.3194 
1 8.85281 7.04334 -5.30336 
1 8.9405 5.24838 -3.52234 
2 12.3187 5.3107 -3.39072 
1 -10.7405 8.90564 -5.33071 
1 -8.86576 10.6108 -5.21614 
1 -8.92747 8.9065 -3.58742 
1 -10.7864 10.5234 -3.69496 
1 -7.12363 10.6783 -3.59554 
1 -5.31547 10.7244 -5.31644 
1 -7.15007 8.91831 -5.28259 
1 -5.37379 9.08196 -3.47069 
1 -1.83332 10.7931 -5.24114 
1 -3.5757 10.7551 -3.5559 
2 -3.61666 8.90367 -5.28144 
1 -1.86705 8.98294 -3.57127 
1 -0.208583 8.92848 -5.37502 
1 0.0127168 10.6344 -3.65469 
2 1.73992 10.7794 -5.36747 
1 3.46118 10.7069 -3.51462 
1 3.47151 8.99348 -5.45018 
1 1.61241 8.86894 -3.63259 
1 1.80467 12.4401 -3.35603 
1 7.16314 10.6722 -3.5853 
2 5.52248 10.7618 -5.47927 
1 7.22051 8.76222 -5.52172 
2 5.31369 9.05518 -3.70956 
1 10.6673 8.63144 -5.34093 
1 8.75521 10.6441 -5.29918 
1 8.68946 8.91096 -3.66055 
1 -5.37641 12.4375 -3.56472 
1 -1.87745 12.4615 -3.4561 
1 -0.0466492 12.5415 -5.15032 
1 -3.59977 12.5564 -5.40024 
1 -3.45148 14.3046 -3.35724 
1 0.017273 14.3572 -3.44039 
1 3.6228 12.4518 -5.50635 
2 1.78657 14.0813 -5.17147 
1 3.63059 14.2348 -3.63111 
1 5.21982 12.3213 -3.50444 
1 -14.2601 3.59713 -0.0465786 
1 -14.2903 1.71773 -1.64263 
1 -14.2279 1.98857 1.79874 
1 -12.2884 1.87072 -0.0297286 
1 -12.3535 0.134257 -1.65496 
1 -12.4229 3.54083 -1.69985 
2 -12.4543 3.67623 1.78742 
2 -10.5587 3.75411 0.112637 
1 -10.6402 1.82555 -1.71909 
1 -10.6903 1.93936 1.96854 
1 -8.91788 3.66835 -1.80309 
1 -8.84399 3.76967 1.80932 
1 -8.95478 1.96609 0.0863873 
1 -10.5741 0.107053 0.114517 
2 -8.80666 0.0852972 1.82208 
2 -12.3844 0.111787 1.88988 
1 -7.10047 3.67055 -0.0114034 
1 -7.18083 1.82213 -1.64858 
1 -7.17861 1.93952 1.7886 
1 -5.36295 3.59133 -1.87643 
1 -5.37903 3.65101 1.79319 
1 -5.33731 1.8202 -0.0384784 
1 -5.35031 0.122113 -1.80072 
2 -3.54684 3.6031 -0.0142782 
1 -3.65641 1.828 -1.8522 
2 -1.83996 3.64832 -1.92161 
1 -3.58028 1.83609 1.79273 
1 -1.72006 3.66905 1.74033 
1 -1.87531 1.80028 0.0236159 
1 -0.113202 1.74841 -1.8283 
1 -3.54049 0.037985 -0.0592032 
1 -0.107928 3.68083 -0.00136572 
1 -1.76258 0.0251392 -1.75655 
1 -0.181889 1.80143 1.64494 
1 -0.0808007 -0.0177442 -0.0334083 
2 3.55132 3.62084 0.0777917 
1 3.49249 1.73064 -2.03163 
2 1.69894 3.64601 -1.84545 
1 3.63642 1.8143 1.89201 
1 1.64639 3.51826 1.73401 
2 1.69906 1.75161 -0.0738556 
1 1.63119 -0.12198 -1.77869 
1 7.01493 3.69356 -0.0431241 
1 7.03523 1.765 -1.92646 
1 7.08702 1.8012 1.82654 
1 5.26406 3.58276 -1.9023 
1 5.34666 3.62505 1.91884 
2 5.29873 1.82984 0.0488786 
1 5.40895 0.0884333 -1.94834 
1 10.7239 3.68495 0.019064 
1 10.7428 2.08039 1.74608 
2 10.6243 1.84665 -1.64139 
1 8.81804 3.55314 -1.75722 
1 8.66267 3.57044 1.84934 
1 8.78314 1.86411 0.019006 
1 12.3904 3.56891 -1.72997 
1 12.5887 1.9456 0.155531 
1 12.6443 0.16309 1.65148 
1 12.5488 3.82153 1.78507 
1 14.7261 0.229516 0.350651 
1 14.2158 3.74162 -0.134237 
2 14.1814 1.64014 -1.64349 
1 14.2961 2.05202 1.84333 
1 -12.593 5.37405 -0.247764 
1 -12.5305 7.24367 -1.66907 
1 -12.2576 7.2906 1.80585 
1 -10.675 7.02902 -0.0281299 
1 -10.6016 5.51992 -1.74978 
1 -10.5832 5.66021 1.94014 
1 -8.9194 7.21283 -1.82474 
2 -8.76769 7.15459 1.76416 
1 -8.75224 5.49044 -0.0240008 
1 -7.04555 7.28341 -0.064853 
1 -7.03616 5.47469 -1.72374 
2 -5.21502 7.24915 -1.81242 
1 -7.01618 5.30229 1.68945 
1 -5.31301 7.15086 1.8095 
1 -5.28295 5.41804 0.001789 
1 -3.53544 7.11823 0.0175023 
1 -1.99963 7.12483 -1.84024 
1 -1.63965 7.21514 1.85181 
1 -3.67622 5.34426 -1.95906 
1 -3.52682 5.42874 1.8596 
2 -1.76888 5.53627 -0.0606758 
1 0.0254029 5.45996 -1.83518 
1 -0.0144072 7.29275 -0.0597175 
1 -0.0575065 5.44384 1.80338 
1 3.484 7.08734 -0.105068 
1 1.73994 7.16982 -1.78707 
2 1.67153 7.23862 1.74599 
1 3.57486 5.32616 -1.89815 
2 3.51844 5.36191 1.80355 
1 1.65109 5.43015 -0.0332958 
1 7.14495 7.09666 0.0693993 
1 7.04076 5.26483 -1.79681 
2 5.36402 7.12653 -1.82467 
1 7.03182 5.36102 1.78555 
1 5.2842 7.18218 1.8038 
1 5.34774 5.40985 -0.00457929 
1 10.3067 7.11616 -0.287804 
1 10.5607 5.32412 1.7681 
1 10.5361 5.34217 -1.6839 
1 8.70922 7.17652 -1.87764 
2 9.09868 7.26127 1.79092 
1 8.87974 5.27196 0.100955 
2 11.7554 7.40719 1.67943 
1 12.2585 7.12833 -1.68709 
1 12.479 5.43543 0.0548145 
2 -8.92669 10.5651 -1.82273 
1 -8.79498 10.7154 1.75298 
2 -10.6747 8.88792 -1.64582 
1 -10.5776 9.12405 1.70147 
1 -8.83722 8.98424 0.0626424 
1 -7.02917 10.5741 -0.0810279 
1 -5.23688 10.6469 1.8526 
1 -5.19807 10.7396 -1.73063 
1 -7.19088 9.01525 -1.84786 
1 -7.01765 8.89383 1.68958 
1 -5.20444 8.93747 0.0323572 
2 -5.21392 12.4288 0.149554 
1 -3.45406 10.747 0.0572782 
2 -1.76557 10.8383 1.93587 
1 -1.77561 10.883 -1.79442 
1 -3.49781 9.02178 -1.74207 
2 -3.4915 8.85156 1.8979 
1 -1.86132 8.94081 -0.0278622 
1 -3.42639 12.4269 -1.65161 
2 -0.137037 8.89519 -1.87487 
1 -0.159706 9.08018 1.93942 
1 -0.0892729 12.5155 -1.78653 
1 -0.0647151 10.945 0.115222 
1 3.52803 10.7149 0.0543054 
1 1.71976 10.7091 1.85013 
1 1.57342 10.6739 -1.79859 
1 3.35793 8.88732 -1.75847 
1 3.40023 8.97534 1.77072 
1 1.65722 9.0729 -0.0356933 
2 1.83141 12.3917 -0.0104924 
1 7.11539 10.6389 -0.0452859 
1 5.21493 10.6101 1.9108 
2 5.32545 10.5715 -1.76937 
1 7.08683 8.93678 -1.89695 
1 7.00499 8.88317 1.78253 
2 5.30066 8.81377 0.101858 
2 6.93795 12.355 1.87037 
1 10.5094 8.90774 -2.13595 