ITEM: TIMESTEP
1260000
ITEM: NUMBER OF ATOMS
1289
ITEM: BOX BOUNDS pp pp pp
-100 100
-100 100
-100 100
ITEM: ATOMS type x y z 
1 -1.93723 -6.96814 -12.4595 
1 -3.74355 -5.2628 -12.4573 
1 0.0201965 -5.45667 -12.3821 
1 1.70315 -7.22861 -12.287 
1 3.35124 -5.29921 -12.4865 
1 -7.15846 -1.71944 -12.3924 
2 -5.41093 -3.48412 -12.4217 
1 -5.51039 -0.159992 -12.557 
2 -1.6842 -1.90714 -14.1914 
2 -3.71939 -1.87054 -12.4977 
1 -1.85482 -3.72022 -12.4429 
1 -0.0693645 -1.69956 -12.3183 
1 0.167155 -3.61231 -13.9831 
2 -0.126886 0.114095 -14.2664 
2 3.04458 -3.5377 -14.1246 
1 1.68604 -3.45035 -12.1194 
1 3.50288 -1.77032 -12.5048 
1 1.50021 -1.73768 -14.0643 
2 3.376 -0.0130226 -14.3185 
2 1.80613 0.0580201 -12.2879 
1 5.2273 -1.71844 -14.453 
2 6.94686 -1.63907 -12.5709 
2 5.22308 -3.51304 -12.7328 
1 -1.58141 -12.8266 -6.78616 
1 -9.07576 -9.10602 -6.92482 
2 -5.25679 -10.7563 -8.73804 
1 -5.44679 -9.00253 -10.7256 
1 -7.15183 -9.10898 -8.94697 
1 -5.29451 -9.0216 -6.89401 
1 -7.16529 -10.5682 -6.94597 
1 -2.01986 -10.9332 -8.56894 
1 -1.75226 -8.93863 -10.6397 
1 -3.71577 -10.8456 -6.73003 
2 -3.4676 -9.05354 -8.83466 
1 -1.92401 -8.93589 -6.99537 
1 -0.300007 -10.7903 -10.2671 
1 -0.272478 -8.93709 -8.73567 
2 0.0500616 -10.7391 -7.10098 
1 1.21054 -8.91401 -10.5653 
1 1.76344 -12.444 -7.26814 
2 1.8117 -10.6228 -8.97012 
1 3.62298 -10.7013 -7.16869 
2 3.47841 -8.71126 -8.89845 
1 1.75891 -8.90597 -7.09815 
1 5.23077 -10.4525 -8.98214 
1 6.9241 -8.82612 -9.01739 
1 5.29647 -8.89428 -7.1431 
1 6.93841 -10.5993 -7.07969 
1 5.26245 -8.74466 -10.8083 
1 8.88931 -9.01751 -7.34049 
1 -10.8532 -5.16968 -8.83697 
1 -8.99932 -5.1856 -10.5709 
1 -8.94058 -7.26422 -8.87352 
2 -8.88565 -5.2969 -7.20618 
2 -10.6535 -7.1979 -7.02704 
1 -7.09634 -7.12969 -10.6192 
1 -5.49853 -5.23623 -10.79 
1 -7.11384 -5.36237 -8.91995 
1 -5.39146 -7.3438 -8.8218 
2 -7.12058 -7.27965 -7.06162 
1 -5.36609 -5.4856 -7.16726 
2 -3.73109 -7.14533 -10.6545 
1 -1.95343 -5.37306 -10.7727 
1 -2.00617 -7.08282 -8.84611 
1 -3.76555 -5.43788 -8.84443 
1 -3.60238 -7.27304 -7.03171 
2 -1.97234 -5.29758 -7.00961 
2 -0.156928 -7.21038 -7.04136 
1 -0.221707 -7.0542 -10.5823 
2 -0.111393 -5.28546 -8.9149 
2 3.52043 -6.9996 -10.6491 
1 1.71132 -5.26248 -10.6408 
1 1.61967 -7.16079 -8.88437 
1 3.58156 -5.10525 -8.93707 
1 3.48891 -7.00021 -7.28173 
2 1.69649 -5.20282 -7.1292 
1 7.0388 -7.12866 -10.6459 
1 5.2662 -5.28484 -10.788 
1 5.33424 -6.94613 -8.86158 
1 7.06888 -5.24902 -9.05625 
1 7.04283 -6.98221 -7.23774 
1 5.27044 -5.21761 -7.15891 
1 8.83021 -5.18162 -10.7193 
1 10.7274 -5.34933 -8.96705 
1 10.7253 -7.1528 -7.20082 
2 8.74784 -7.06707 -8.87795 
1 8.82646 -5.21901 -7.22123 
1 -12.5859 -1.73941 -7.00677 
1 -10.9946 -1.82912 -9.07748 
1 -9.03902 -1.78323 -10.6739 
1 -10.8048 -3.48737 -7.12002 
1 -8.94031 -3.56598 -8.86026 
1 -9.06509 -1.88736 -7.06418 
1 -9.02612 -0.32141 -8.78379 
1 -10.9622 -0.208299 -7.19641 
1 -7.41497 -3.61495 -10.6523 
1 -5.4286 -1.69586 -10.6278 
1 -7.11586 -1.83044 -8.94742 
1 -5.47294 -3.60598 -8.84131 
1 -7.16389 -3.58179 -7.10963 
1 -5.47642 -1.72873 -7.25822 
1 -7.16875 0.015288 -7.20383 
1 -5.48533 0.0285274 -9.00509 
1 -3.73668 -3.53768 -10.6471 
1 -1.90686 -1.60606 -10.7522 
1 -3.63081 -1.77584 -8.92709 
2 -1.96902 -3.58259 -8.92787 
1 -3.69049 -3.47013 -7.04622 
1 -1.87699 -1.70392 -7.13075 
1 -0.155502 -3.53062 -10.7475 
1 -0.158098 -3.34668 -7.07617 
1 -0.13908 -1.79993 -8.9799 
1 -0.209712 0.111612 -10.5408 
1 -0.130152 0.0906379 -7.06467 
1 3.57633 -3.42131 -10.6596 
1 1.5902 -1.71769 -10.6299 
1 1.70636 -3.535 -8.96486 
2 3.47797 -1.73072 -8.86121 
1 3.63724 -3.46158 -7.19972 
1 1.69627 -1.7879 -7.11522 
2 1.59302 0.0272763 -8.87034 
1 7.07248 -3.58175 -10.8387 
1 5.32921 -1.70814 -10.7409 
1 7.06696 -1.77265 -8.98672 
1 5.35015 -3.50817 -9.02879 
1 6.94227 -3.57323 -7.16062 
1 5.29911 -1.77153 -7.12095 
2 7.14882 -0.023922 -7.12011 
1 8.91275 -1.93015 -10.7654 
1 10.7687 -3.72337 -7.10382 
1 8.90151 -3.60697 -8.9186 
2 8.89776 -1.90182 -7.22674 
2 10.7422 -1.95005 -9.01165 
1 12.3766 -1.97199 -7.07227 
1 8.81081 -0.0253638 -9.01228 
1 10.5823 -0.0931032 -10.6732 
1 -1.54252 -14.3203 -4.92715 
2 0.450873 -14.323 -3.2913 
1 -1.69393 -12.5879 -3.33929 
2 2.0544 -12.4199 -3.29076 
1 0.397371 -12.6978 -5.2411 
1 -10.8002 -8.86998 -5.23114 
1 -8.85735 -10.6822 -5.18002 
2 -8.94472 -9.02327 -3.33749 
1 -5.28855 -12.5259 -3.46543 
1 -7.13286 -10.8227 -3.28761 
1 -5.5225 -10.7225 -5.21892 
1 -7.06778 -8.9222 -5.15805 
1 -5.28902 -9.02524 -3.39004 
1 -3.48358 -12.6479 -5.18939 
2 -1.70884 -10.9244 -5.252 
1 -3.47788 -10.6587 -3.53569 
1 -3.55771 -8.8499 -5.25922 
2 -1.77879 -8.93851 -3.51935 
1 -0.153827 -8.95046 -5.3538 
2 0.0844252 -10.6912 -3.54304 
1 3.31734 -12.4949 -5.45402 
1 1.75721 -10.5634 -5.35693 
1 3.66178 -10.6706 -3.61593 
1 3.51222 -8.98207 -5.49897 
1 1.81898 -8.82256 -3.52753 
1 5.12261 -12.6788 -3.67067 
2 6.91787 -10.8665 -3.81315 
1 5.17204 -10.8262 -5.40177 
1 7.10387 -8.8156 -5.62303 
2 5.40343 -8.81361 -3.73333 
1 8.802 -10.6906 -5.47394 
2 8.82776 -8.81885 -3.62392 
1 10.5234 -9.0772 -5.45995 
1 8.73331 -10.7042 -1.99576 
1 -12.5251 -5.41292 -3.52808 
1 -10.7469 -7.14661 -3.46403 
1 -10.6973 -5.32501 -5.4299 
2 -8.86209 -7.1616 -5.20106 
1 -8.94742 -5.36882 -3.41514 
1 -6.99533 -7.24042 -3.42882 
1 -7.13112 -5.32232 -5.17625 
1 -5.33509 -7.17731 -5.17752 
1 -5.35949 -5.31417 -3.46406 
1 -1.86392 -7.11749 -5.13683 
1 -3.6918 -7.1058 -3.47433 
1 -3.72483 -5.49204 -5.2715 
1 -1.88117 -5.31714 -3.48272 
2 -0.093948 -5.22389 -5.27272 
1 -0.151684 -7.10651 -3.5607 
2 1.74066 -7.22993 -5.29659 
1 3.66279 -7.08723 -3.69708 
1 3.54336 -5.2968 -5.37747 
1 1.81153 -5.2437 -3.65933 
1 6.98716 -7.04968 -3.7018 
1 5.25448 -7.05359 -5.49431 
1 7.0865 -5.32579 -5.48218 
1 5.42072 -5.31435 -3.68856 
1 10.678 -7.14395 -3.59054 
1 10.904 -5.45133 -5.45092 
2 8.92124 -7.09081 -5.53788 
2 8.86767 -5.42579 -3.58437 
1 12.4706 -5.19743 -3.38737 
1 -14.2899 -3.69678 -3.34493 
1 -12.5085 -3.6325 -5.33404 
2 -12.5063 -1.78516 -3.49321 
1 -10.8411 -1.78105 -5.31793 
2 -10.8371 -3.56448 -3.5018 
1 -9.00621 -3.58583 -5.23973 
2 -9.00266 -1.84395 -3.54402 
2 -7.11585 -1.8074 -5.33313 
1 -7.19823 -3.54921 -3.39904 
1 -5.44871 -3.64881 -5.41246 
1 -5.39146 -1.87756 -3.50464 
1 -3.80463 -1.65301 -5.34667 
1 -1.97659 -3.40743 -5.32384 
1 -3.62399 -3.61709 -3.58742 
1 -1.88117 -1.65541 -3.57744 
1 0.0169162 -1.63727 -5.32933 
1 -0.128842 -3.44443 -3.66172 
1 -0.156983 -0.0130516 -3.51911 
1 -1.91814 0.00487332 -5.32048 
1 -3.71942 0.191374 -3.51691 
1 1.87857 -3.42467 -5.30552 
1 3.62134 -1.72284 -5.37307 
1 3.6162 -3.52231 -3.61385 
2 1.81715 -1.74239 -3.58222 
1 1.72922 0.0495249 -5.41387 
1 5.37035 -0.0653401 -5.28645 
1 7.13976 -1.77672 -5.29621 
1 7.28367 -3.61967 -3.68283 
1 5.32217 -3.48338 -5.21387 
1 5.45003 -1.72203 -3.44179 
1 10.6712 -1.81778 -5.45167 
1 10.5124 -3.49817 -3.58503 
1 8.92997 -3.60913 -5.36507 
1 8.91916 -1.68711 -3.66084 
1 12.1014 -1.67136 -3.51602 
2 12.4552 -3.55526 -5.10163 
2 14.0307 -3.09693 -3.05314 
2 14.1018 -0.269242 -3.49829 
1 -5.08651 -12.8074 0.245028 
1 -3.19404 -14.4796 0.431695 
1 -1.47865 -14.4784 -1.51062 
1 -0.835345 -14.539 1.15483 
1 -3.40371 -12.7353 -1.53357 
1 -1.60813 -12.4444 -0.0021407 
1 0.997455 -14.7324 -0.701453 
1 2.79734 -14.6854 -2.44702 
1 3.48827 -14.3955 0.0435928 
2 1.55201 -14.183 1.71657 
2 0.0100937 -12.5108 -1.64478 
1 5.05863 -14.2549 -1.7032 
1 -10.8079 -10.3777 0.14174 
1 -10.7853 -8.92801 -1.8114 
1 -8.88875 -10.9048 -1.48817 
2 -8.91225 -10.7611 1.65407 
1 -8.90576 -8.75708 0.110125 
2 -10.7923 -8.88636 2.2271 
2 -7.15338 -12.4161 1.67817 
2 -7.04109 -12.6054 -1.31313 
1 -7.06757 -10.4962 0.102369 
2 -5.25984 -10.8178 -1.48565 
2 -5.28472 -10.7601 1.76738 
1 -7.13282 -9.00662 -1.66106 
1 -7.10908 -8.79585 1.90911 
1 -5.36959 -8.718 0.125096 
1 -3.3115 -12.2998 1.69223 
1 -3.41189 -10.6567 0.0517723 
1 -1.73523 -10.7205 -1.8097 
1 -1.66059 -10.559 1.6497 
1 -3.60259 -8.86413 -1.71231 
1 -3.57772 -8.91553 1.72748 
1 -1.7931 -8.83571 -0.0686044 
1 -0.0077543 -8.82947 -1.78587 
1 0.000503749 -12.2755 1.6688 
1 -0.0182532 -10.5656 -0.0057713 
1 3.53542 -12.4483 1.80096 
1 -0.0884149 -8.81008 1.69774 
2 1.96061 -12.3686 -0.0750936 
1 3.74654 -12.3964 -1.70771 
1 3.63049 -10.6156 0.0481075 
1 1.89596 -10.4765 -1.82112 
1 1.73208 -10.5839 1.73894 
1 3.4899 -8.83583 -1.8017 
1 3.69804 -8.91416 1.80638 
1 1.88636 -8.85747 -0.0190095 
1 7.01724 -12.5761 1.74628 
1 5.28047 -12.4556 0.098794 
2 6.82182 -12.5126 -1.89492 
1 7.00436 -10.6969 0.00152032 
1 5.33965 -10.6185 -1.785 
1 5.32059 -10.7751 1.9382 
1 7.08541 -8.99786 -1.77925 
2 7.03996 -8.84625 1.73661 
1 5.28652 -9.0064 -0.143102 
1 8.51132 -12.3235 -0.181323 
1 10.7447 -8.80307 -1.82694 
1 10.7061 -9.04173 1.60388 
2 8.91575 -9.09828 -0.162838 
1 8.76323 -10.8619 1.85101 
1 -12.4814 -7.03694 -1.71164 
1 -12.6027 -5.34972 0.111499 
2 -10.9202 -7.29352 0.183889 
1 -10.7554 -5.40204 -1.67042 
1 -10.8868 -5.43557 1.91726 
1 -9.02945 -7.21381 -1.68494 
1 -8.98421 -7.0447 1.89678 
1 -9.01511 -5.45164 0.0445273 
1 -7.19054 -7.14564 -0.0695451 
1 -7.08742 -5.45139 -1.65237 
1 -5.32319 -7.21986 -1.71039 
2 -7.25958 -5.28038 1.74212 
1 -5.36692 -7.05509 1.84774 
1 -5.4791 -5.3803 0.0993399 
1 -3.61685 -7.09253 0.135122 
1 -1.80056 -7.12575 -1.88862 
1 -1.81181 -7.17028 1.75804 
1 -3.65922 -5.36146 -1.70408 
1 -3.53635 -5.36195 1.84134 
2 -1.77275 -5.46068 -0.0294666 
1 0.043178 -7.14373 0.00656607 
1 0.026969 -5.28201 -1.95631 
1 0.162817 -5.36275 1.78563 
1 3.70287 -7.18302 0.10758 
2 1.7994 -7.03922 -1.84594 
1 1.77523 -7.16485 1.77208 
2 3.79866 -5.35111 -1.77792 
1 3.51101 -5.46952 1.76155 
1 1.80071 -5.41254 -0.0365192 
1 7.09539 -7.09351 -0.0792906 
1 5.40874 -7.19249 -1.73599 
1 7.10989 -5.30794 -1.63644 
1 5.28553 -7.05894 1.7911 
2 7.15181 -5.34759 1.721 
1 5.25707 -5.40942 0.0511088 
1 10.4696 -7.14755 -0.154608 
1 10.6013 -5.29492 1.59431 
1 10.6271 -5.39487 -1.80162 
1 8.78397 -7.1288 -1.91375 
1 8.96107 -7.17139 1.71991 
1 8.85597 -5.39582 -0.0813154 
1 12.2796 -7.17881 1.42162 
2 12.4054 -5.33717 -0.0696741 
1 12.505 -7.08741 -1.69117 
1 -14.2808 -3.57298 0.159714 
2 -14.1983 -1.77823 -1.55429 
1 -14.3067 -1.70222 1.85462 
1 -12.5892 -3.64466 -1.68498 
1 -12.5268 -3.5403 1.85521 
1 -12.4683 -1.67297 0.0408822 
1 -10.7282 -3.51043 -0.127517 
1 -10.6979 -1.60263 -1.63801 
1 -10.7842 -1.80767 1.66561 
1 -8.97241 -3.57804 -1.66372 
2 -9.00344 -3.47374 1.73325 
1 -8.86756 -1.74413 -0.141858 
1 -7.26441 -3.58077 0.00560642 
1 -7.21436 -1.77133 -1.78246 
1 -7.13187 -1.74271 1.78103 
1 -5.37078 -3.66096 -1.69515 
2 -5.31956 -3.57097 1.78227 
2 -5.45275 -1.77968 -0.085053 
2 -5.43576 0.0574475 1.74746 
1 -3.58956 -3.68036 0.0442393 
1 -3.70483 -1.72667 -1.91666 
2 -1.75429 -3.46808 -1.73411 
2 -3.35017 -1.67731 1.88759 
1 -1.75124 -3.55584 1.69061 
1 -1.85919 -1.64795 -0.118299 
1 0.101476 -3.67158 0.0349665 
1 0.068475 -1.80851 -1.73303 
1 -1.67437 0.00556512 1.75354 
1 -1.88728 0.0363373 -1.82056 
1 -0.0859649 -1.90952 1.73002 
2 3.61594 -3.5769 0.131791 
2 1.85015 -3.52152 -1.76384 
1 3.60848 -1.64993 -1.78347 
1 1.84058 -3.61001 1.86116 
1 3.67007 -1.80894 1.83908 
1 1.65657 -1.8698 0.0162279 
2 3.40556 -0.07144 0.0154822 
1 1.72268 -0.0155095 -1.74313 
1 7.10814 -3.48877 0.0298909 
1 7.19936 -1.70373 -1.88596 
1 7.27178 -1.7919 1.9516 
1 5.47234 -3.48067 -1.89082 
1 5.39633 -3.45459 1.93512 
2 5.43886 -1.6956 0.0638424 
1 5.47236 -0.0846866 1.83569 
1 7.1761 0.157958 0.106998 
1 10.5029 -3.52262 -0.126911 
1 10.5515 -1.89474 1.911 
1 10.448 -1.69684 -1.82965 
1 8.90205 -3.61534 -1.82643 
1 8.91921 -3.6347 1.78764 
2 8.83527 -1.68891 0.0159614 
1 12.1087 -3.42909 -1.73251 
1 12.4175 -1.7305 0.0492694 
1 12.4035 0.0618239 1.73551 
2 12.3709 -0.0717582 -1.67654 
2 12.4947 -3.56829 1.57853 
2 14.2049 -3.58094 -0.371441 
1 14.4799 -1.39507 -1.31038 
1 14.3647 -1.80094 1.53339 
2 -5.12702 -12.8535 3.29532 
2 -2.8513 -14.2243 3.01522 
1 -0.170835 -14.2499 3.5571 
1 3.24607 -14.1982 3.55612 
1 -10.5398 -10.9899 3.58681 
1 -10.6964 -8.91919 5.33332 
2 -8.82408 -8.96762 3.56738 
2 -8.75499 -10.8377 5.37624 
1 -7.05797 -10.8518 3.51734 
1 -5.40476 -10.9736 5.34138 
1 -7.10146 -8.85877 5.34285 
2 -5.38106 -8.94926 3.49827 
2 -3.40411 -12.5538 5.1882 
1 -1.53097 -12.3495 3.45397 
1 -1.74548 -10.753 5.36855 
1 -3.41168 -10.7744 3.55706 
2 -3.553 -9.00749 5.35216 
1 -1.7533 -8.90683 3.52744 
2 0.0517585 -12.5634 5.39573 
1 -0.118842 -8.92585 5.33425 
1 0.0478493 -10.5755 3.64578 
1 3.2274 -12.4836 5.35642 
1 1.6109 -12.4074 3.39267 
1 1.64359 -10.668 5.39292 
2 3.33905 -10.6774 3.60456 
1 3.58869 -8.9341 5.42618 
1 1.62068 -8.86933 3.56714 
1 5.05375 -12.6286 3.53755 
1 6.98668 -10.9863 3.64181 
1 5.22454 -10.8531 5.4395 
2 7.20638 -8.86393 5.40045 
2 5.32623 -9.00438 3.70336 
1 8.8245 -10.6372 5.13674 
2 8.8708 -8.87151 3.51794 
2 10.6614 -8.62045 5.40809 
1 -12.589 -5.35215 3.68035 
1 -10.8606 -7.12628 3.77567 
1 -10.7915 -5.37984 5.32673 
1 -8.90579 -7.07114 5.41449 
1 -9.08809 -5.30171 3.67495 
1 -7.21634 -7.08093 3.61709 
1 -7.28398 -5.44204 5.49199 
1 -5.35386 -7.20033 5.45362 
2 -5.38892 -5.35761 3.64519 
1 -1.81427 -7.14103 5.29876 
1 -3.57643 -7.15837 3.52124 
1 -3.53609 -5.41718 5.34226 
2 -1.75564 -5.37474 3.55396 
1 -0.00367793 -7.12179 3.55451 
2 0.0126169 -5.42204 5.36388 
1 1.71454 -7.12907 5.3168 
1 3.4978 -7.18644 3.62599 
1 3.53406 -5.26682 5.32414 
1 1.88082 -5.39185 3.599 
1 7.23282 -7.13165 3.55811 
1 5.30515 -7.08739 5.37554 
2 7.24663 -5.45313 5.4598 
2 5.32695 -5.36292 3.64444 
1 10.631 -7.19786 3.32456 
1 10.9301 -5.52858 5.28973 
1 9.07465 -7.02794 5.64458 
1 9.14693 -5.47789 3.58372 
2 12.422 -5.37929 3.48182 
1 -14.1675 -3.33162 3.53429 
1 -12.5233 -3.42054 5.38953 
1 -12.4501 -1.67364 3.56653 
1 -10.7122 -1.73461 5.3972 
1 -10.8413 -3.70728 3.58192 
1 -8.93658 -3.46866 5.37857 
2 -9.05209 -1.65764 3.65099 
1 -8.86052 0.210455 5.38335 
1 -7.10927 -1.79672 5.32557 
2 -7.2329 -3.69833 3.6435 
1 -5.37247 -3.64148 5.4225 
1 -5.4489 -1.74894 3.5779 
1 -5.4819 0.083313 5.33785 
2 -3.62712 -1.76934 5.35286 
2 -1.84467 -3.5337 5.43839 
1 -3.58185 -3.524 3.50809 
1 -1.60744 -1.7024 3.63964 
1 0.0223694 -1.58704 5.50494 
1 -3.49137 -0.035895 3.523 
1 -0.0930801 0.00757408 3.69257 
1 0.0599653 -3.64974 3.56782 
1 1.80873 -3.5364 5.31489 
1 3.47509 -1.74219 5.29406 
1 3.52695 -3.55616 3.58461 
1 1.68689 -1.82112 3.62062 
1 5.43116 -0.142833 5.40948 
1 7.11614 -1.99116 5.48219 
1 7.22746 -3.70803 3.59417 
1 5.29999 -3.5181 5.43131 
1 5.46087 -1.84605 3.63203 
2 7.23144 0.0451467 3.67456 
2 10.8487 -1.94141 5.31023 
1 10.6705 -3.7519 3.49967 
2 9.04678 -3.78497 5.48718 
1 8.94036 -1.85413 3.64845 
2 12.5257 -1.7931 3.46881 
1 12.7002 -3.69569 5.28626 
1 14.2887 -3.70707 3.41044 
1 14.3562 -1.79075 5.23519 
2 14.1629 0.0960423 3.3557 
1 -8.93284 -8.81984 7.10681 
1 -5.34403 -8.99981 10.5883 
1 -5.23487 -10.8068 8.86123 
1 -7.14012 -10.7001 7.19125 
2 -7.1437 -8.9401 8.91258 
1 -5.27951 -8.98454 7.17744 
1 -1.70523 -12.4856 7.08524 
2 -1.82923 -8.80915 10.5928 
1 -1.95651 -10.6127 8.95943 
1 -3.58309 -10.8117 7.01415 
1 -3.57568 -8.96857 8.91353 
1 -1.82481 -8.91314 7.12654 
1 -0.106331 -10.6562 7.22284 
1 -0.0590416 -9.01652 9.07329 
1 1.69268 -12.3426 7.23923 
1 1.80822 -10.6 8.99862 
1 3.67268 -10.7421 7.22066 
1 3.52589 -8.77216 8.77862 
1 1.58396 -8.99545 7.09913 
1 1.91096 -8.80241 10.6733 
1 7.05357 -10.7709 7.10595 
1 5.26631 -8.96023 10.5128 
1 5.40811 -10.6253 8.83141 
1 7.15138 -8.88366 8.92716 
1 5.35966 -8.94478 7.13747 
1 8.94493 -9.07703 7.11948 
1 -10.5567 -5.30194 9.11234 
2 -10.5554 -6.90373 7.11264 
1 -8.86791 -6.99725 8.97743 
1 -8.80019 -5.29374 7.24916 
1 -8.67431 -5.29814 10.7571 
1 -6.98936 -7.10161 10.5975 
1 -6.9672 -5.30624 8.77608 
1 -5.41028 -7.28176 8.87321 
1 -7.17703 -7.13047 7.17252 
1 -5.35568 -5.35363 7.02567 
1 -5.61513 -5.26637 10.9406 
2 -3.84717 -7.10707 10.7695 
1 -1.87976 -5.38757 10.6337 
1 -1.95615 -7.10012 8.96737 
2 -3.81051 -5.4012 8.91803 
1 -3.58163 -7.09548 7.11192 
1 -1.78503 -5.43643 7.2687 
1 -0.0476596 -7.2714 7.25179 
1 -0.136671 -7.10473 10.6461 
2 0.012558 -5.40876 8.89748 
1 3.61861 -6.99461 10.6584 
1 1.7898 -5.37161 10.6635 
1 1.70019 -7.23783 8.93002 
1 3.44434 -5.40765 8.84608 
1 3.55236 -7.19699 7.00189 
2 1.75255 -5.4438 7.04839 
1 6.9657 -7.13428 10.5867 
1 5.31425 -5.41358 10.5146 
1 5.26222 -7.16081 8.75924 
1 7.07831 -5.42107 8.8256 
1 7.26126 -7.21519 7.29651 
2 5.26346 -5.40466 7.1803 
1 8.71066 -5.39682 10.5608 
1 10.5671 -5.22686 9.17045 
1 10.8119 -7.0249 7.39086 
1 9.06587 -7.17479 8.94266 
1 9.02977 -5.34518 7.39334 
2 -12.1154 -1.70914 7.37575 
1 -9.0853 -1.56289 10.4612 
1 -10.8527 -2.68868 9.3789 
2 -10.8016 -3.85395 7.15623 
1 -8.73199 -3.50772 8.90546 
2 -9.1319 -1.76431 7.21372 
1 -11.1172 -0.424553 9.263 
1 -7.19701 -3.42537 10.6965 
1 -5.40896 -1.61251 10.7895 
1 -7.16177 -1.56721 8.89942 
2 -5.42718 -3.48273 8.99164 
1 -7.20193 -3.37103 7.07322 
1 -5.3268 -1.69587 7.21383 
1 -5.50038 0.124631 8.89196 
1 -7.25111 0.0887148 10.6672 
1 -3.60225 0.0292053 10.7003 
1 -3.74374 -3.47839 10.7072 
1 -1.79119 -1.67011 10.7001 
1 -3.70788 -1.73421 8.91422 
2 -1.92804 -3.5415 8.993 
1 -3.60339 -3.61153 7.1358 
1 -1.86663 -1.68574 7.23621 
1 -0.0628483 -3.59898 10.6538 
1 -1.74503 0.0246729 9.01591 
2 0.0359975 0.113159 7.11024 
1 0.0326688 -1.85821 8.8728 
2 0.0488868 -3.43459 7.12707 
1 1.80971 -1.6689 7.20217 
2 3.47436 -3.46792 7.17606 
1 1.78699 -1.82441 10.6782 
1 1.79864 -3.57152 9.0313 
1 3.62428 -1.79135 8.96779 
1 3.57452 -3.67218 10.601 
1 7.12597 -1.75448 8.93375 
1 5.45115 -1.74481 7.2213 
1 7.22256 -3.47479 10.6403 
1 5.37026 -1.69702 10.6953 
1 7.06657 -3.51937 7.1897 
1 5.28085 -3.51557 8.86852 
1 5.46803 -0.00559421 8.98224 
1 7.29565 -0.0865257 7.19853 
2 8.97001 0.0506008 9.04687 
2 10.696 -1.86602 8.94042 
1 10.9669 -3.65262 7.34212 
1 8.9367 -3.54847 8.82299 
1 8.98108 -1.89115 7.18206 
1 9.08269 -1.88922 10.7742 
2 12.6255 -1.7745 7.08827 
1 0.0719065 -8.6548 12.4885 
1 -1.87564 -6.93487 12.4133 
1 -0.0925887 -5.3277 12.2379 
1 -3.62879 -5.29982 12.5059 
1 3.6441 -5.24961 12.3824 
1 1.76171 -5.16155 14.2052 
2 1.6736 -6.91516 12.3778 
1 -0.148338 -6.78061 14.1304 
1 -7.30879 -1.64411 12.3554 
1 -5.36605 -3.27491 12.5318 
1 -5.38678 -0.0613623 12.538 
1 -3.40168 -0.00717308 14.3811 
1 0.102938 -0.296371 14.354 
2 -0.406944 -3.87847 14.0849 
1 -3.54864 -1.64605 12.4108 
1 -1.98575 -3.48694 12.2818 
1 -1.78825 -1.79765 14.143 
1 -1.59485 -0.0670261 12.4494 
1 1.85913 -2.01942 14.2158 
1 1.78613 -3.63012 12.3235 
1 3.4881 -1.99533 12.3992 
1 0.00823423 -1.94019 12.5065 
1 1.76733 -0.18198 12.5417 
1 7.19209 -1.83138 12.3228 
2 5.3463 -3.4717 12.2243 
1 -7.28767 1.74039 -12.3452 
1 -5.59423 3.73875 -12.3766 
2 -1.92685 2.065 -14.2399 
2 -3.91315 1.79649 -12.606 
1 -1.89436 3.58142 -12.3135 
2 -0.11331 1.95723 -12.2441 
1 0.00440397 3.61464 -14.284 
2 -1.91776 0.0375517 -12.4437 
1 -3.63909 -0.172039 -14.3675 
1 3.55536 3.59497 -14.2371 
1 3.52068 1.90407 -12.4141 
2 1.79328 3.65144 -12.5152 
1 1.76913 1.96014 -14.3038 
1 5.15779 1.72619 -14.3425 
1 7.182 1.7253 -12.5778 
1 5.28785 3.51183 -12.6466 
2 5.12309 0.241138 -12.3874 
1 -1.66651 7.33501 -12.5228 
1 -3.43505 5.33883 -12.4924 
1 -0.126092 5.43226 -12.4305 
1 1.84468 7.03518 -12.2583 
1 3.6845 5.39036 -12.4484 
1 -12.1413 1.8604 -7.40664 
1 -11.4743 3.22823 -9.3917 
1 -9.1705 1.6392 -10.7236 
2 -9.01834 3.85028 -8.99883 
2 -9.45485 1.83822 -7.40847 
1 -10.8939 4.06323 -7.05958 
1 -10.9626 0.864505 -9.34151 
1 -7.32503 3.74873 -10.7455 
2 -5.43073 1.86271 -10.756 
2 -7.37119 1.82166 -8.91226 
1 -5.5407 3.67008 -8.9311 
1 -7.22775 3.71038 -7.18333 
2 -5.53887 1.82747 -7.12569 
1 -7.14391 -0.123651 -10.639 
1 -3.6806 3.59433 -10.5944 
1 -2.09548 1.7212 -10.7034 
1 -3.76389 1.74418 -8.87493 
2 -1.94596 3.55184 -8.9779 
2 -3.63331 3.73439 -7.15117 
1 -1.87302 1.76248 -7.03232 
1 -0.139697 1.82345 -8.88154 
1 -0.148188 3.52336 -7.15544 
1 -0.102768 3.70362 -10.6041 
1 -3.69674 -0.0333734 -7.1935 
1 -1.87861 0.145537 -8.78478 
1 -3.71834 0.0316572 -10.7707 
1 3.50274 3.71717 -10.6343 
1 1.71889 1.91944 -10.574 
1 3.6026 1.97253 -8.90166 
2 1.71192 3.77238 -8.85577 
1 3.55017 3.5956 -7.1168 
2 1.71951 1.81814 -7.14353 
1 3.50906 0.0386525 -10.6347 
1 3.47422 0.0631345 -7.06774 
2 7.19823 0.102743 -10.7632 
2 6.97455 3.5534 -10.7918 
1 5.24187 1.90286 -10.6514 
1 7.1478 1.92852 -8.92935 
1 5.26895 3.52799 -8.97682 
1 6.98633 3.59217 -7.1902 
1 5.25767 1.81045 -7.05317 
2 5.37715 0.0771177 -8.91897 
1 8.95083 1.94556 -10.6639 
2 10.7519 1.84516 -9.0576 
1 8.92232 3.47008 -8.85521 
1 8.93461 1.71235 -7.19115 
1 10.7686 3.78318 -7.21867 
2 12.4097 1.95886 -7.11558 
2 10.7507 0.0129403 -7.31741 
1 -10.6538 5.63665 -8.89254 
1 -10.6433 7.25441 -7.02171 
1 -8.97201 7.33737 -8.94397 
1 -8.85529 5.52308 -7.21642 
1 -8.68261 5.84328 -10.6839 
2 -5.57911 5.55632 -10.8082 
1 -6.98127 7.61508 -10.6512 
1 -7.11699 5.53395 -8.91189 
1 -5.31255 7.36834 -8.88811 
2 -7.03005 7.26963 -7.13983 
1 -5.41533 5.51988 -7.12898 
2 -3.51464 7.27895 -10.6882 
1 -1.7991 5.43379 -10.7302 
1 -1.7678 7.29724 -8.90557 
2 -3.62312 5.51893 -8.97975 
1 -3.74357 7.38121 -7.08336 
1 -1.70891 5.48474 -7.02716 
2 -0.161922 5.60948 -8.86369 
1 -0.204024 7.32542 -7.06664 
1 0.00153262 7.30775 -10.7352 
1 3.57665 7.18653 -10.6709 
1 1.72469 5.4358 -10.6627 
2 1.73343 7.24918 -8.89154 
1 3.50045 5.37826 -8.83184 
1 3.57514 7.16694 -7.06851 
1 1.63544 5.391 -7.02655 
1 7.02157 7.03727 -10.653 
1 5.1817 5.40332 -10.6233 
1 7.10997 5.32895 -8.94125 
1 5.1957 7.07423 -8.86774 
1 7.02548 7.0845 -7.32711 
1 5.31608 5.22803 -7.1317 
1 8.73057 5.14143 -10.6928 
1 10.6082 5.18103 -9.13113 
1 9.01856 7.04394 -9.06955 
1 8.79779 5.35838 -7.19306 
2 10.6863 6.74584 -7.20915 
1 -8.82494 9.10171 -7.08745 
1 -5.11989 9.33896 -10.6441 
1 -5.1218 10.8826 -8.66538 
1 -7.06053 9.31353 -8.88902 
1 -5.35963 9.1065 -6.87973 
1 -7.12052 10.8763 -7.06003 
2 -1.71598 9.07077 -10.6428 
2 -2.02657 10.7598 -8.89913 
1 -3.54291 10.8042 -6.93024 
1 -3.50892 9.07277 -8.79001 
1 -1.89645 8.90733 -7.06969 
1 -0.0718963 12.2128 -8.87491 
1 -1.75632 12.4327 -7.16088 
1 -0.257878 10.6701 -7.16996 
1 0.0107418 9.09307 -8.87893 
1 1.81055 9.02585 -10.8234 
1 1.78549 10.6297 -9.05982 
1 3.43406 10.6701 -7.31627 
1 3.53327 8.84023 -8.8132 
1 1.66788 9.01523 -7.05462 
2 1.67252 12.4753 -7.15982 
1 5.20764 9.03197 -10.7368 
1 5.23947 10.6273 -8.817 
1 7.25054 10.4721 -7.35088 
1 7.04988 8.83063 -9.06889 
1 5.30216 8.77979 -7.21966 
1 8.92525 8.73871 -7.34432 
2 -14.1552 3.51361 -3.32628 
1 -14.2602 -0.0101804 -3.31434 
2 -12.5699 3.58762 -5.25237 
1 -12.5377 1.75845 -3.47975 
1 -12.7045 0.160554 -5.40166 
2 -10.6768 1.92594 -5.28039 
1 -10.7723 3.54797 -3.455 
1 -9.03342 3.73792 -5.48518 
2 -8.96176 1.77161 -3.48976 
2 -9.11875 -0.0391169 -5.48615 
1 -10.8409 -0.0782455 -3.39574 
1 -7.37773 1.79922 -5.49369 
2 -7.1645 3.61844 -3.60631 
1 -5.38128 3.66629 -5.35695 
1 -5.41588 1.82134 -3.63206 
2 -6.98935 0.0644055 -3.54659 
1 -5.44261 0.0374743 -5.47292 
1 -3.53425 1.90627 -5.26028 
1 -1.85333 3.75559 -5.40506 
1 -3.66411 3.67884 -3.54432 
1 -1.83347 1.81106 -3.57341 
1 -0.111934 1.72282 -5.31583 
1 -0.0374817 3.57852 -3.67158 
1 3.65004 1.67771 -5.28122 
2 1.7673 3.54107 -5.30374 
1 3.69625 3.6 -3.49336 
2 1.84955 1.72648 -3.51178 
1 3.56137 0.019386 -3.47541 
1 7.19898 1.80304 -5.349 
1 7.06774 3.65165 -3.75942 
1 5.37164 3.49485 -5.36752 
1 5.32704 1.81308 -3.60344 
1 7.09986 0.0412903 -3.61205 
1 10.6065 1.77477 -5.43622 
1 10.6342 3.57919 -3.63668 
2 8.99972 3.64883 -5.43096 
1 8.9657 1.72947 -3.65793 
1 12.3696 1.81452 -3.7809 
1 12.2135 3.62545 -5.42303 
1 10.7192 0.0720584 -3.73333 
1 8.92665 0.0133717 -5.47961 
2 12.5885 -0.130918 -5.47766 
1 14.0485 3.44294 -3.61611 
1 -12.5939 5.4603 -3.36281 
1 -10.9067 7.50098 -3.44208 
1 -10.7861 5.51621 -5.16226 
2 -8.87425 7.24482 -5.22525 
1 -8.97136 5.34992 -3.50743 
1 -7.17854 7.24857 -3.50927 
1 -7.12726 5.44724 -5.31705 
1 -5.29311 7.26589 -5.22493 
1 -5.33262 5.41091 -3.46916 
1 -1.85712 7.19856 -5.21015 
1 -3.47141 7.10651 -3.44517 
1 -3.61628 5.50969 -5.30556 
1 -1.78578 5.33043 -3.53727 
1 -0.00291091 5.44744 -5.38248 
2 -0.0188905 7.18844 -3.65548 
1 1.6826 7.17468 -5.55739 
2 3.46464 7.20833 -3.69877 
1 3.57376 5.32283 -5.40083 
1 1.80914 5.30579 -3.6652 
1 7.15004 7.15379 -3.5983 
1 7.14122 5.36416 -5.35982 
2 5.40759 7.20107 -5.39044 
1 5.30242 5.37712 -3.58765 
1 10.7362 7.16042 -3.57309 
1 10.7829 5.54336 -5.29167 
1 8.76253 7.08931 -5.36695 
1 9.0043 5.39879 -3.56961 
2 12.2975 5.30116 -3.50096 
1 -10.5746 9.10374 -5.17937 
1 -8.95565 10.6434 -5.14687 
1 -8.87782 8.95756 -3.34186 
1 -10.5347 10.7237 -3.27655 
1 -7.17044 10.8742 -3.39327 
1 -5.53985 11.057 -5.28999 
1 -7.23739 9.09381 -5.23198 
1 -5.47263 9.15735 -3.54511 
1 -5.35337 12.4839 -3.4488 
1 -1.79768 10.7767 -5.23268 
1 -3.57813 10.8796 -3.51957 
2 -3.64678 8.92919 -5.15745 
1 -1.80637 8.97586 -3.53083 
1 -3.58202 12.6193 -5.25797 
1 -0.13419 8.99191 -5.3051 
1 -0.0209588 10.8435 -3.51178 
2 1.66683 10.8225 -5.25412 
1 3.54845 10.7498 -3.65442 
1 3.5927 9.05226 -5.45985 
1 1.75691 8.99799 -3.49816 
1 1.81221 12.4345 -3.50959 
1 -0.158407 12.5054 -5.39571 
1 3.56228 12.5805 -5.48918 
1 7.31472 10.8268 -3.6759 
2 5.39784 10.7338 -5.64062 
1 7.21486 8.89636 -5.51825 
2 5.30871 9.06919 -3.63557 
1 10.6506 8.6391 -5.60395 
1 8.98504 10.4852 -5.4889 
1 8.86375 8.96069 -3.5666 
1 -1.75409 12.5119 -3.49349 
1 -3.49442 14.3796 -3.52866 
1 -0.0690177 14.3062 -3.58425 
2 1.80185 14.0814 -5.08574 
1 3.72006 14.2928 -3.55531 
1 5.38206 12.3351 -3.8718 
1 -14.3316 3.51073 -0.082313 
1 -14.2851 1.81118 -1.76509 
1 -14.3005 1.86456 1.96186 
1 -12.5987 1.71482 0.0922425 
1 -12.4223 3.5661 -1.79038 
1 -12.5399 0.0554398 -1.61097 
1 -14.3228 -0.00755481 0.0796312 
2 -12.5454 3.64955 1.75432 
2 -10.6967 3.61617 -0.00394441 
1 -10.8345 1.71608 -1.75968 
1 -10.7914 1.86923 1.87125 
1 -8.92123 3.59464 -1.71793 
1 -8.9804 3.60291 1.89528 
1 -9.04418 1.79471 0.0255128 
2 -9.0724 0.0106017 1.78259 
2 -12.4713 0.133541 1.92305 
1 -8.89264 0.0167981 -1.78294 
1 -10.7265 0.088317 0.0646375 
1 -7.18895 0.0563413 -0.000336991 
1 -7.19237 3.481 -0.0690709 
1 -7.13613 1.7244 -1.70262 
1 -7.21964 1.87268 1.82866 
1 -5.34239 3.59962 -1.79959 
1 -5.35833 3.59219 1.76517 
1 -5.43096 1.88376 -0.041296 
1 -5.33592 0.0571093 -1.7212 
2 -3.55074 3.56759 -0.0878563 
1 -3.70092 1.85855 -1.86199 
2 -1.77581 3.66383 -1.85435 
1 -3.57024 1.73875 1.68914 
1 -1.78072 3.56967 1.74737 
1 -1.77383 1.76926 -0.00279217 
1 -0.0839262 1.86263 -1.91814 
1 -0.00373568 1.88037 1.79165 
1 -3.66874 0.0879273 -0.025547 
1 -0.0438695 3.62373 0.0850887 
1 -0.0801194 0.0588623 -0.078477 
2 3.58093 3.61982 -0.178566 
1 3.65203 1.81298 -1.82737 
2 1.64466 3.7476 -1.84872 
1 3.58217 1.8132 1.96732 
1 1.75683 3.43526 1.75269 
2 1.79565 1.86166 -0.110973 
2 1.60084 0.0140654 1.92119 
1 5.48894 0.039992 -1.85476 
1 7.04287 3.51351 -0.0389865 
1 7.12389 1.7195 -1.7773 
1 6.9686 1.89799 1.96096 
1 5.46345 3.55056 -1.83096 
1 5.36506 3.61705 1.83788 
2 5.22022 1.73766 0.070213 
1 10.6571 3.52712 -0.109793 
1 10.7648 1.96519 1.795 
2 10.634 1.70214 -1.93004 
1 8.83978 3.58785 -1.86955 
1 8.82713 3.43915 1.72841 
1 8.9494 1.8535 -0.0228599 
2 8.97204 0.246621 1.87151 
1 10.6342 -0.0304801 0.0569279 
1 12.4663 3.44177 -1.92786 
1 12.4882 1.83483 0.0862659 
1 8.85067 0.0638981 -1.86842 
1 14.3049 0.295593 0.384849 
1 12.5655 3.71117 1.72806 
1 14.2391 3.63219 -0.219255 
2 14.1034 1.70621 -1.78614 
1 14.5731 2.14427 1.78618 
1 -12.6169 5.32212 -0.0585487 
1 -12.5477 7.15764 -1.52991 
1 -12.2919 7.08867 1.6006 
1 -10.6244 7.03549 0.0593795 
1 -10.6878 5.37871 -1.79789 
1 -10.7717 5.26145 1.85147 
1 -8.93473 7.16781 -1.72732 
2 -9.04146 7.09951 1.89177 
1 -8.92258 5.41979 -0.0100745 
1 -7.14063 7.20003 0.160844 
1 -7.1167 5.41233 -1.72556 
2 -5.26815 7.19642 -1.76631 
1 -7.07682 5.31947 1.79498 
1 -5.27547 7.14635 1.71895 
1 -5.27504 5.33057 -0.0562205 
1 -3.48716 7.27805 0.00795729 
1 -1.7756 7.25135 -1.86768 
1 -1.76391 7.18996 1.8537 
1 -3.59775 5.50673 -1.73199 
1 -3.6422 5.44795 1.79871 
2 -1.78338 5.52542 -0.0738268 
1 0.03998 5.45985 -1.95736 
1 -0.0133063 5.39009 1.8029 
1 0.0017442 7.26814 -0.0142524 
1 3.54547 7.14313 -0.116001 
1 1.72684 7.20337 -1.79558 
2 1.71073 7.16687 1.83323 
1 3.45454 5.44918 -1.76396 
2 3.47991 5.3965 1.81142 
1 1.70776 5.42879 0.00968862 
1 7.16529 7.1258 -0.0105886 
1 7.21046 5.31851 -1.87375 
2 5.37544 7.06622 -1.83494 
1 7.13369 5.27251 1.74474 
1 5.3132 7.17282 1.7803 
1 5.44294 5.37538 0.0608248 
1 10.6809 7.00445 -0.189444 
1 10.6168 5.20736 1.56803 
1 10.5825 5.26429 -1.72491 
1 8.84687 7.17543 -1.7044 
2 9.02931 7.15071 1.64619 
1 8.93187 5.26002 -0.0578508 
1 12.3712 7.03366 -1.65202 
1 12.4044 5.18055 -0.0564703 
2 12.1744 6.91633 1.7206 
2 -8.79554 10.6421 -1.46987 
1 -8.84269 10.9197 1.68081 
2 -10.7078 9.04394 -1.53702 
1 -10.8243 9.19121 1.39682 
1 -8.83322 8.87221 0.109294 
1 -7.01344 10.6696 0.132595 
1 -5.34511 10.7835 1.79757 
1 -5.36735 10.7758 -1.68385 
1 -6.98308 8.95031 -1.62132 
1 -7.08266 8.99001 1.75252 
1 -5.21877 9.02516 0.0785789 
1 -7.13282 12.4855 1.81614 
1 -3.62124 10.7693 0.0690092 
2 -1.79433 10.7492 1.7813 
1 -1.77541 10.7194 -1.76602 
1 -3.52874 9.07123 -1.89862 
2 -3.61974 8.94602 1.79424 
1 -1.71029 8.94707 -0.0314195 
1 -1.76128 12.4561 -0.107973 
1 -3.58739 12.4247 -1.63806 
2 0.0346739 9.14874 -1.84237 
1 -0.0800349 9.00285 1.77054 
1 0.0105931 10.7619 0.131203 
1 3.63711 10.7216 0.13011 
1 1.88632 10.7367 1.77327 
1 1.90829 10.7445 -1.71908 
1 3.44157 9.02164 -1.81365 
1 3.65304 8.89549 1.84431 
1 1.86266 8.95256 0.0339746 
1 -0.0610128 12.5278 1.7229 
2 1.78333 12.5782 0.00768476 
1 7.07793 10.736 -0.0554136 
1 5.26545 10.6554 1.82002 
2 5.42691 10.841 -1.72042 
1 7.07935 8.84433 -1.7923 
1 7.0332 8.98556 1.76419 
2 5.39247 8.91957 0.00860436 
2 7.02991 12.3213 1.64473 
1 7.09227 12.6152 -1.66864 
1 10.7128 8.87556 -1.6881 
2 10.7271 8.85484 1.21126 