ITEM: TIMESTEP
130000
ITEM: NUMBER OF ATOMS
1289
ITEM: BOX BOUNDS pp pp pp
-100 100
-100 100
-100 100
ITEM: ATOMS type x y z 
1 -1.6637 -7.05417 -12.549 
1 -3.52717 -5.23749 -12.5156 
1 0.368849 -5.40832 -12.4906 
1 1.77561 -7.29628 -12.4605 
1 3.53426 -5.45755 -12.48 
1 -6.90228 -1.81238 -12.4899 
2 -5.47128 -3.79232 -12.3472 
1 -5.31059 -0.0805564 -12.6226 
2 -1.74847 -2.08599 -14.2265 
2 -3.61832 -2.01447 -12.4348 
1 -1.65313 -3.64925 -12.4714 
2 -1.71366 -0.161486 -12.4283 
1 0.0472015 -3.62898 -14.2005 
1 0.127766 -1.9649 -12.4697 
2 2.02569 -2.02738 -14.1939 
1 2.06242 -3.7012 -12.366 
1 3.65262 -1.76955 -12.3792 
1 0.177128 -0.240593 -14.5881 
1 5.31158 -1.84799 -14.3148 
2 7.21498 -1.98295 -12.5293 
2 5.44769 -3.73768 -12.399 
1 -1.66162 -12.6581 -7.08921 
1 1.57409 -12.6078 -6.97135 
1 -9.14574 -8.97681 -7.12138 
2 -5.26251 -10.5196 -8.88972 
1 -5.3423 -8.86721 -10.7887 
1 -7.18277 -10.4107 -7.13043 
1 -7.2023 -8.89241 -9.12139 
1 -5.34438 -8.8535 -7.04068 
1 -1.92154 -10.7598 -8.86491 
1 -1.87627 -8.82289 -10.9178 
1 -3.65798 -10.8614 -7.12813 
2 -3.52943 -8.93076 -8.86073 
1 -1.86969 -8.9774 -6.9946 
1 -0.0926695 -8.95606 -8.93463 
1 -0.160207 -10.6275 -10.6886 
2 -0.0427454 -10.7547 -7.10645 
2 1.73044 -10.8706 -8.93728 
1 1.76465 -9.00711 -10.5257 
1 3.68524 -11.1579 -7.33453 
2 3.53648 -9.13666 -8.77768 
1 1.83024 -8.99694 -7.08985 
1 5.45872 -10.6493 -8.85505 
1 5.45144 -8.84571 -10.673 
1 7.24252 -8.74218 -8.98565 
1 5.48111 -9.02476 -7.14439 
1 7.29701 -10.6216 -7.13786 
1 9.01608 -8.80748 -7.21278 
1 -10.6258 -5.30227 -8.9661 
1 -8.77752 -5.35184 -10.6724 
2 -10.5534 -7.12541 -7.10214 
1 -8.91488 -7.10213 -9.05238 
2 -8.86411 -5.15418 -7.23197 
1 -6.98746 -6.97945 -10.7618 
1 -5.31724 -5.45695 -10.6373 
1 -7.02788 -5.32971 -8.92414 
1 -5.40285 -7.12287 -8.85832 
2 -7.11926 -7.23287 -7.16834 
1 -5.36801 -5.39221 -7.16038 
2 -3.61738 -7.12196 -10.8271 
1 -1.76409 -5.41993 -10.7996 
1 -1.83216 -7.15922 -9.01021 
1 -3.62887 -5.5288 -8.94712 
1 -3.61643 -7.1096 -7.07473 
2 -1.80357 -5.36405 -7.1178 
2 -0.0359119 -7.32971 -7.20276 
1 0.033618 -7.24288 -10.7925 
2 -0.00388466 -5.36724 -9.05961 
2 3.54901 -7.18165 -10.5554 
1 1.85703 -5.39534 -10.614 
1 1.72116 -7.14562 -8.95688 
1 3.55397 -5.1212 -8.92938 
1 3.69502 -7.32855 -7.20593 
2 1.89738 -5.43841 -7.20955 
1 7.24468 -7.02053 -10.7712 
1 5.51685 -5.43031 -10.7671 
1 5.37786 -7.16636 -8.96686 
1 7.1143 -5.37713 -8.90175 
1 7.07595 -7.21989 -7.17807 
1 5.25685 -5.38048 -7.18391 
1 8.81148 -5.26104 -10.7409 
1 10.8018 -5.11517 -8.8425 
1 10.7665 -6.73878 -7.09502 
2 9.00841 -6.87134 -8.88563 
1 8.92414 -5.24603 -7.17167 
1 -12.3672 -1.64059 -7.1023 
1 -10.6609 -2.06665 -8.97814 
1 -8.9294 -1.79026 -10.7879 
1 -10.8496 -3.7035 -7.03855 
1 -8.86041 -3.52409 -9.00043 
1 -9.11091 -1.85782 -7.12869 
1 -8.88361 -0.0518061 -8.85511 
1 -10.8481 0.0391455 -7.39723 
1 -10.8772 0.0512494 -10.0991 
1 -7.14811 -0.107941 -10.7634 
1 -7.08966 -3.6257 -10.6661 
1 -5.31654 -1.86264 -10.6306 
1 -7.16485 -1.87282 -9.02415 
1 -5.21833 -3.54062 -8.9036 
1 -7.042 -3.4888 -7.19191 
1 -5.22161 -1.76796 -7.16517 
1 -7.06248 -0.166626 -7.13615 
1 -5.42939 -0.1026 -8.96777 
1 -3.59003 -3.71265 -10.6417 
1 -1.71698 -1.83349 -10.7352 
1 -3.48172 -1.77012 -8.91658 
2 -1.85585 -3.60823 -8.92788 
1 -3.59146 -3.66082 -7.16028 
1 -1.91209 -1.72346 -7.10772 
1 -1.82275 -0.0635438 -8.94729 
1 -3.66315 -0.118472 -10.682 
1 -0.0704942 -0.0439091 -7.1113 
1 -0.0285898 -3.45066 -7.14992 
1 -0.00185867 -1.85482 -8.90397 
1 0.0711837 -3.60977 -10.7035 
1 0.061582 -0.161781 -10.6045 
1 -3.67152 -0.0714788 -7.07734 
1 3.65641 -3.64073 -10.7376 
1 1.76819 -1.95443 -10.7112 
1 1.65918 -3.56513 -8.85009 
2 3.58682 -1.87396 -8.92332 
1 3.62515 -3.51176 -7.1644 
1 1.73194 -1.88593 -7.19147 
2 1.71591 -0.0961615 -8.90261 
1 3.54446 -0.0452028 -7.14176 
1 7.15103 -3.58486 -10.7309 
1 5.43781 -1.75 -10.7137 
1 7.25049 -1.70981 -9.02679 
1 5.49976 -3.56955 -9.02019 
1 7.11081 -3.60363 -7.15989 
1 5.3916 -1.84628 -7.1026 
1 9.02155 -1.99632 -10.7212 
1 10.8405 -3.53084 -7.06945 
1 8.95236 -3.61631 -9.09019 
2 8.96436 -1.80677 -7.12034 
2 10.699 -1.78496 -8.96377 
1 12.4563 -1.75104 -7.08978 
1 -5.51757 -12.5992 -3.35844 
1 -3.51001 -14.1115 -3.36752 
1 -1.73961 -12.5642 -3.40487 
1 -3.67379 -12.5622 -5.09888 
2 0.142051 -14.326 -3.30245 
1 -0.08454 -12.6326 -5.14784 
1 3.5637 -14.3332 -3.23791 
1 3.53057 -12.6201 -5.2963 
2 2.02577 -12.5355 -3.4415 
1 -10.7749 -8.92732 -5.03669 
1 -8.82683 -10.7125 -5.32932 
2 -8.78031 -9.00378 -3.32063 
1 -7.31033 -10.8137 -3.37798 
1 -5.42321 -10.7795 -5.24886 
1 -7.07878 -8.927 -5.27184 
1 -5.28249 -8.84796 -3.51936 
2 -1.85334 -10.8687 -5.30765 
1 -3.65758 -10.8524 -3.48813 
1 -3.60644 -8.99801 -5.29565 
2 -1.7482 -8.88601 -3.60682 
2 0.0848392 -10.7025 -3.5284 
1 -0.0228615 -9.00962 -5.31245 
1 1.84614 -10.6219 -5.36363 
1 3.62622 -10.5941 -3.61839 
1 3.82892 -9.05367 -5.51477 
1 1.96447 -8.92813 -3.50176 
1 5.27037 -12.4292 -3.34941 
2 7.2149 -10.8464 -3.63716 
1 5.48323 -10.9098 -5.45421 
1 7.25854 -9.01058 -5.45667 
2 5.48506 -9.02354 -3.55224 
1 8.87315 -10.7833 -5.52336 
2 9.10061 -8.92198 -3.64915 
1 10.7374 -8.79394 -5.42921 
1 -12.6802 -5.49427 -3.57097 
1 -10.8295 -7.11186 -3.54083 
1 -10.8104 -5.38524 -5.4108 
2 -8.91407 -7.18541 -5.23134 
1 -9.05873 -5.33861 -3.66378 
1 -7.0249 -7.19735 -3.50442 
1 -7.02914 -5.45607 -5.26469 
1 -5.34366 -7.07784 -5.27421 
1 -5.31863 -5.28758 -3.44829 
1 -1.83086 -7.12859 -5.31935 
1 -3.63632 -7.12148 -3.51075 
1 -3.4857 -5.38446 -5.25369 
1 -1.68406 -5.31569 -3.49637 
2 0.0938847 -5.31018 -5.30333 
1 0.00109164 -7.13834 -3.59418 
2 1.88416 -7.31076 -5.30301 
1 3.72534 -7.27196 -3.54887 
1 3.62739 -5.42097 -5.46158 
1 1.86335 -5.42807 -3.58637 
1 7.21363 -7.14258 -3.53444 
1 5.44345 -7.2425 -5.30811 
1 7.05469 -5.39702 -5.43907 
1 5.3334 -5.44115 -3.63523 
1 11.0222 -7.19651 -3.5774 
1 10.9251 -5.19328 -5.26989 
2 9.07855 -6.99254 -5.4643 
2 9.02031 -5.43395 -3.62623 
1 12.6448 -5.1561 -3.16332 
1 -14.1736 -3.51065 -3.43987 
1 -12.6004 -3.58174 -5.25752 
2 -12.6091 -1.65646 -3.77878 
1 -10.7062 -1.76179 -5.39327 
2 -10.7785 -3.578 -3.61043 
1 -8.97425 -3.61006 -5.37228 
2 -8.93094 -1.80494 -3.44898 
1 -10.7718 -0.00531816 -3.53991 
2 -6.92935 -1.80074 -5.37291 
1 -7.17524 -3.72394 -3.55972 
1 -5.30768 -3.59486 -5.37731 
1 -5.35313 -1.80991 -3.50623 
2 -7.10687 0.0617457 -3.53935 
1 -0.202103 0.00458285 -3.58443 
1 -3.62014 -1.77148 -5.36951 
1 -1.74433 -3.44999 -5.30821 
1 -3.54553 -3.48445 -3.58956 
1 -1.74567 -1.77272 -3.66249 
1 -0.0339994 -1.81122 -5.42468 
1 -0.0171419 -3.5151 -3.60179 
1 -1.71921 0.111606 -5.42462 
1 1.79113 -0.118611 -5.397 
1 1.80972 -3.58858 -5.35184 
1 3.59413 -1.82265 -5.38989 
1 3.71807 -3.63691 -3.70561 
2 1.76889 -1.80777 -3.6263 
1 3.51052 -0.0236307 -3.60477 
1 7.05643 -1.83737 -5.35798 
1 7.18042 -3.7497 -3.50819 
1 5.39619 -3.60256 -5.44173 
1 5.35798 -1.77315 -3.52033 
1 10.5684 -1.84144 -5.37714 
1 10.726 -3.57347 -3.51717 
1 8.98477 -3.62431 -5.41281 
1 8.7454 -1.88246 -3.56854 
1 12.2894 -1.646 -3.53873 
2 12.6388 -3.27325 -5.19164 
2 14.0018 -3.20664 -3.00249 
2 14.269 -0.122949 -3.46726 
1 -5.34078 -12.7483 -0.116558 
1 -3.60901 -14.3729 0.169707 
1 -1.83333 -14.3646 -1.53166 
1 -1.6541 -14.1821 1.48816 
1 -3.61323 -12.4787 -1.74012 
2 -0.0923368 -12.4747 -1.68255 
1 0.0788651 -14.1647 -0.0344048 
1 3.6687 -14.4013 0.202904 
1 1.95834 -14.2307 -1.46267 
2 1.76971 -14.1288 1.76935 
1 3.77258 -12.504 -1.60558 
2 1.827 -12.189 0.114622 
1 -11.1708 -9.53266 0.372034 
1 -10.7394 -8.93395 -1.95828 
1 -9.12407 -10.9023 -1.46196 
2 -9.01321 -10.4523 1.5281 
1 -8.91982 -8.79934 -0.212455 
2 -7.36014 -12.4992 -1.34761 
2 -7.22968 -12.3993 1.40645 
1 -7.18865 -10.3662 -0.172704 
2 -5.37531 -10.7322 -1.74466 
2 -5.41351 -10.6973 1.55881 
1 -7.07314 -8.80876 -1.70615 
1 -7.19344 -8.76518 1.71928 
1 -5.31078 -8.83495 -0.0394721 
1 -3.61396 -12.4879 1.503 
1 -1.96536 -12.3553 -0.0511196 
1 -3.70602 -10.677 0.0474752 
1 -1.93898 -10.6121 -1.8723 
1 -1.93355 -10.6938 1.801 
1 -3.52844 -8.81625 -1.85834 
1 -3.59063 -8.94795 1.77106 
1 -1.87686 -8.85515 -0.00408146 
1 -0.179342 -10.4992 -0.0486047 
1 -0.0786716 -12.3056 1.72192 
1 3.63716 -12.3903 1.95052 
1 0.0557367 -8.91547 -1.77699 
1 0.0144547 -9.06463 1.74863 
1 3.71306 -10.6272 0.281646 
1 1.9948 -10.6134 -1.78473 
1 1.84536 -10.7441 1.95206 
1 3.76999 -8.90456 -1.72415 
1 3.64686 -8.83128 1.87125 
1 1.7418 -9.05048 0.145412 
1 5.47373 -12.4713 0.21648 
1 7.30281 -12.203 1.86356 
2 7.09376 -12.4554 -1.69748 
1 7.10584 -10.6797 0.00931037 
1 5.38393 -10.5925 -1.61391 
1 5.42832 -10.7671 1.91412 
1 7.19811 -8.91213 -1.74322 
2 7.26316 -9.07067 1.90472 
1 5.4398 -8.91577 0.121887 
1 9.14207 -10.8271 -2.12706 
1 9.00276 -12.0604 0.00388675 
1 11.0205 -8.93409 -1.76113 
1 10.9111 -9.05215 1.74271 
2 9.14848 -9.21839 -0.0632799 
1 9.30315 -10.7273 2.02729 
1 -12.4554 -7.28423 -1.78937 
1 -12.5837 -5.46408 0.0328773 
2 -11.9877 -7.37947 1.66487 
2 -10.5538 -7.0505 -0.187388 
1 -10.684 -5.30979 -1.89704 
1 -10.6786 -5.47367 1.83366 
1 -8.98258 -7.11319 -1.99943 
1 -9.17168 -7.31669 1.7397 
1 -8.7843 -5.34775 -0.03346 
1 -7.1039 -7.08536 -0.122984 
1 -7.26526 -5.34103 -1.90493 
1 -5.39797 -7.02862 -1.70884 
2 -7.23331 -5.56999 1.83281 
1 -5.39087 -7.17473 1.86371 
1 -5.34101 -5.38674 -0.0605044 
1 -3.53701 -7.13924 -0.135704 
1 -1.67478 -7.10568 -1.82703 
1 -1.74785 -7.34277 1.74284 
1 -3.50417 -5.34826 -1.84745 
1 -3.61543 -5.50393 1.7891 
2 -1.72315 -5.40122 0.129134 
1 0.0667636 -5.35481 1.81694 
1 0.020947 -7.08641 0.0625172 
1 0.00750969 -5.37706 -1.74621 
1 3.728 -7.18914 0.0389847 
2 1.86342 -7.13578 -1.76724 
1 1.80732 -7.11854 1.79771 
2 3.67037 -5.41441 -1.79643 
1 3.44201 -5.34526 1.75258 
1 1.72923 -5.37049 0.0296984 
1 7.20108 -7.29848 0.0804127 
1 5.52935 -7.23049 -1.88252 
1 7.25297 -5.45303 -1.72346 
1 5.2822 -7.10475 1.76705 
2 7.15656 -5.4449 1.77857 
1 5.40741 -5.39038 -0.032271 
1 10.7856 -7.16565 -0.0299846 
1 10.6536 -5.43262 1.7225 
1 10.6268 -5.45923 -1.69685 
1 9.09772 -7.29633 -1.84461 
1 9.05569 -7.17741 1.76906 
1 8.9456 -5.41643 -0.0720658 
2 12.397 -5.36226 -0.17598 
1 12.6811 -7.01089 1.55075 
1 12.6807 -7.1647 -1.6901 
1 -14.1985 -3.58227 0.0649451 
2 -14.1104 -1.70251 -1.60932 
1 -14.3814 -1.71701 1.87591 
1 -12.5191 -1.85783 0.144731 
1 -12.5363 -3.70325 -1.76922 
1 -12.4324 -3.63558 1.7806 
1 -10.7108 -3.64835 0.0518668 
1 -10.9277 -1.80658 -1.85183 
1 -10.7777 -1.85973 1.77654 
1 -9.06986 -3.62552 -1.72439 
2 -9.04823 -3.70665 1.73914 
1 -8.9781 -1.76426 0.00322639 
1 -7.23296 0.0262505 -0.0174776 
1 -7.13838 -3.63075 0.0416211 
1 -7.2942 -1.9052 -1.72794 
1 -7.21242 -1.87639 1.79166 
1 -5.27439 -3.60283 -1.85154 
2 -5.27808 -3.74034 1.75729 
2 -5.41521 -1.71853 -0.0939013 
2 -5.49823 0.0405689 1.79357 
1 -3.59178 -3.53314 -0.108156 
1 -3.56504 -1.66339 -1.81168 
2 -1.79873 -3.49447 -1.8488 
2 -3.59429 -1.662 1.74462 
1 -1.82239 -3.57299 1.77972 
1 -1.69671 -1.74069 0.0148647 
1 -0.056656 -1.80038 -1.73093 
1 -0.00261239 -1.78368 1.79006 
1 -1.79419 0.0976058 1.82521 
1 -1.79222 0.0277842 -1.71842 
1 -0.0946238 -0.0131289 0.0184133 
1 -3.60599 0.196264 -0.0572809 
1 -0.0508451 -3.53205 0.13251 
1 1.64423 -0.00393756 -1.85131 
2 3.6529 -3.55865 -0.0540588 
2 1.67463 -3.69679 -1.74776 
1 3.55468 -1.8711 -1.97008 
1 1.77148 -3.50189 1.84083 
1 3.4357 -1.73179 1.75921 
1 1.77346 -1.75354 -0.0981568 
2 1.65317 -0.00975736 1.76346 
1 7.20382 -3.64856 0.0143778 
1 7.11291 -1.89684 -1.8995 
1 7.08801 -1.96533 1.74546 
1 5.45839 -3.67977 -1.83315 
1 5.23611 -3.71049 1.76262 
2 5.47687 -1.80088 -0.166848 
1 5.35623 0.0532226 -1.92612 
1 5.44309 -0.0676972 1.72132 
1 10.4933 -3.59827 0.0767584 
1 10.55 -1.84367 1.83051 
1 10.5048 -1.67865 -1.72403 
1 8.92402 -3.60818 -1.83643 
1 9.00229 -3.61005 1.85826 
2 8.70369 -1.82074 -0.0579666 
1 12.1286 -3.34262 -1.64164 
1 12.4381 -1.74743 0.130679 
2 12.3989 -0.155376 -1.64436 
2 12.4345 -3.56564 1.67509 
2 14.2147 -3.62061 -0.476239 
1 14.3706 -1.9369 1.40765 
1 14.7637 -1.57856 -1.42855 
2 -3.63414 -14.0311 3.13347 
1 -0.175457 -14.0953 3.45686 
2 -3.47591 -12.5772 5.27951 
1 3.6453 -14.1127 3.6506 
1 -11.1277 -9.44148 2.91484 
1 -10.6513 -9.06585 5.47273 
2 -8.91833 -8.84626 3.76949 
2 -8.75783 -10.7504 5.28964 
2 -5.51394 -12.5094 3.52085 
1 -7.34215 -10.9171 3.42239 
1 -5.36223 -10.9457 5.43892 
1 -7.06952 -8.91014 5.37286 
2 -5.55385 -9.11833 3.61599 
1 -1.83057 -12.4814 3.42674 
1 -1.74225 -10.7977 5.27468 
1 -3.64296 -10.8836 3.36611 
2 -3.51325 -9.05996 5.31971 
1 -1.75749 -9.09996 3.46746 
1 0.0277668 -10.7156 3.44068 
1 3.4605 -12.3585 5.41151 
1 1.7411 -12.5199 3.63819 
2 -0.0846759 -12.4581 5.34547 
1 -0.0548424 -8.89842 5.24999 
1 1.61687 -10.6827 5.41118 
2 3.65307 -10.6378 3.73109 
1 3.53946 -8.86221 5.36035 
1 1.80474 -8.96999 3.59869 
1 5.49043 -12.4975 3.70863 
1 7.38638 -10.7465 3.66151 
1 5.40788 -10.8127 5.63337 
2 7.14397 -8.84486 5.43627 
2 5.28348 -8.8343 3.62641 
1 9.15243 -10.4762 5.51996 
2 9.22568 -8.8585 3.68763 
2 10.7872 -8.4035 5.55065 
1 -12.3952 -5.47046 3.47646 
1 -10.825 -7.24411 3.86614 
1 -10.8612 -5.4506 5.55011 
1 -8.97396 -7.17691 5.50353 
1 -9.02974 -5.44837 3.77406 
1 -7.20196 -7.14008 3.65719 
1 -7.26446 -5.54249 5.43426 
1 -5.37247 -7.28166 5.40592 
2 -5.23536 -5.50399 3.78443 
1 -1.67089 -7.22365 5.30823 
1 -3.4701 -7.36307 3.57271 
1 -3.56909 -5.52942 5.48835 
2 -1.8799 -5.4551 3.44535 
1 0.0033527 -7.16471 3.51543 
2 0.056903 -5.46535 5.32133 
1 1.75028 -7.27495 5.2429 
1 3.50886 -7.07057 3.56567 
1 3.48635 -5.33803 5.34666 
1 1.78734 -5.29076 3.548 
1 7.2706 -7.23588 3.52768 
1 5.30912 -7.13633 5.43262 
2 7.1025 -5.30225 5.36035 
2 5.38665 -5.36144 3.53945 
1 10.9062 -7.22461 3.36468 
1 10.8158 -5.68057 5.41408 
1 8.79763 -7.05463 5.45435 
1 8.96586 -5.48153 3.6646 
2 12.4259 -5.40154 3.54371 
1 -14.0291 -3.62487 3.49126 
1 -12.4499 -3.50217 5.37753 
1 -12.5439 -0.0465418 5.56186 
1 -9.01667 0.00109174 5.28427 
1 -12.4212 -1.85595 3.53591 
1 -10.7832 -1.82744 5.42489 
1 -10.7413 -3.62353 3.62965 
1 -8.98407 -3.71016 5.46417 
2 -9.10497 -1.78739 3.67234 
1 -7.30127 -1.73418 5.40207 
2 -7.25913 -3.58201 3.69469 
1 -5.40186 -3.6071 5.39522 
1 -5.41413 -1.88242 3.5086 
1 -7.27531 -0.103844 3.4871 
1 0.0354096 -0.0131275 3.64956 
2 -3.73919 -1.74105 5.27469 
2 -1.84633 -3.49242 5.26328 
1 -3.56499 -3.53974 3.54579 
1 -1.80162 -1.64772 3.44749 
1 0.044728 -1.75554 5.32682 
1 -1.79971 -0.0278942 5.31499 
1 0.0458925 -3.41073 3.57978 
1 -3.64745 0.0694134 3.55212 
1 1.83476 -3.46879 5.21768 
1 3.58835 -1.60358 5.26983 
1 3.5124 -3.60837 3.48502 
1 1.82576 -1.71118 3.56075 
1 1.74602 0.120044 5.44906 
1 7.04202 -2.00665 5.2809 
1 7.25381 -3.62147 3.44988 
1 5.21382 -3.53523 5.26292 
1 5.31619 -1.90942 3.56882 
1 5.40365 -0.0694789 5.41942 
2 10.7453 -1.75316 5.29547 
1 10.6591 -3.67537 3.60347 
2 8.98178 -3.55312 5.36882 
1 8.88718 -1.80708 3.5649 
2 12.6294 -1.94384 3.48511 
1 12.5568 -3.93765 5.49582 
1 14.2715 -3.76732 3.45968 
1 -8.87283 -9.09404 7.24216 
1 -5.20339 -9.14075 10.6923 
1 -5.06139 -10.919 8.82221 
1 -7.11623 -10.8073 7.12795 
2 -6.96259 -9.12197 8.92491 
1 -5.30652 -9.02963 7.16343 
1 -1.80288 -12.4251 7.03316 
2 -1.7762 -8.88364 10.6357 
1 -1.9383 -10.7581 8.95431 
1 -3.49274 -10.8042 7.06402 
1 -3.57938 -8.95825 8.93379 
1 -1.82681 -8.96752 7.22005 
1 -0.188389 -10.607 7.14876 
1 0.0317102 -8.92001 8.96874 
1 1.72115 -12.366 7.02924 
1 1.78963 -9.0277 10.7205 
1 1.6915 -10.6925 8.87347 
1 3.43642 -10.6509 7.177 
1 3.51794 -8.94219 8.92241 
1 1.7433 -8.98428 7.09187 
1 5.28664 -8.77584 10.6614 
1 5.27232 -10.5918 8.77362 
1 7.16583 -10.6413 7.15163 
1 7.08357 -8.69281 8.85654 
1 5.1991 -8.84611 7.11215 
1 9.00275 -8.64075 7.32364 
1 -10.3395 -5.54562 9.2171 
2 -10.4609 -7.23616 7.20484 
1 -8.69149 -7.34547 9.09669 
1 -8.72859 -5.52943 7.23442 
1 -8.52296 -5.36222 10.7476 
1 -5.35179 -5.38957 10.7508 
1 -6.81099 -7.38334 10.8509 
1 -7.04689 -5.4966 8.91657 
1 -5.3229 -7.32415 8.99883 
1 -7.11999 -7.31753 7.16867 
1 -5.44329 -5.59102 7.1063 
2 -3.67887 -7.20379 10.8177 
1 -1.903 -5.28677 10.7702 
1 -1.88852 -7.06699 8.93248 
2 -3.75094 -5.41652 8.80468 
1 -3.60947 -7.33819 7.05566 
1 -1.89895 -5.35093 7.04619 
2 -0.0580629 -5.35616 8.80722 
1 -0.0442008 -7.28293 7.12437 
1 -0.191894 -6.91001 10.6096 
1 3.44585 -7.17785 10.795 
1 1.67313 -5.21895 10.6288 
1 1.74178 -7.10861 8.98143 
1 3.431 -5.247 8.91491 
1 3.46002 -7.11046 7.07839 
2 1.81115 -5.36006 7.0919 
1 6.86588 -6.95186 10.7487 
1 5.2905 -5.21685 10.5448 
1 5.21165 -7.15706 8.82924 
1 7.172 -5.25405 9.07553 
1 7.09745 -6.97694 7.23145 
2 5.28158 -5.37408 7.06051 
1 10.581 -5.34784 9.17462 
1 8.79189 -5.15852 10.8065 
1 10.6288 -6.95101 7.41808 
1 8.85961 -7.12062 9.26639 
1 8.87832 -5.30407 7.19604 
2 -12.0709 -1.81428 7.42994 
1 -9.14664 -1.64122 10.6838 
1 -10.9366 -2.80183 9.54137 
2 -10.6516 -3.8671 7.23478 
1 -8.74718 -3.71444 8.97795 
2 -9.09178 -1.85299 7.33618 
1 -11.1785 -0.511802 9.48483 
1 -7.13294 -3.48971 10.6651 
1 -5.44419 -1.65847 10.6392 
1 -7.22602 -1.63898 8.92465 
2 -5.46851 -3.49322 8.91125 
1 -7.16687 -3.65629 7.05811 
1 -5.59185 -1.72463 7.12357 
1 -5.4513 0.114244 8.88423 
1 -3.68516 -3.42619 10.7138 
1 -1.88425 -1.60282 10.6351 
1 -3.714 -1.70088 8.82243 
2 -1.85099 -3.43652 8.82492 
1 -3.69097 -3.47714 7.02126 
1 -1.86387 -1.66745 7.08964 
1 -1.85163 0.0860167 8.88016 
2 -3.64196 0.065761 7.03865 
1 -3.74744 0.0365138 10.5962 
1 3.50717 -0.0626023 10.8175 
1 -0.129858 -3.53603 10.7292 
1 0.0135334 -1.74569 8.93916 
2 0.00695352 -3.42401 6.96009 
2 3.50382 -3.51645 7.05771 
1 1.8198 -1.56691 7.06487 
1 3.44554 -3.50464 10.6022 
1 1.83787 -1.77556 10.6151 
1 1.65387 -3.40084 8.8463 
1 3.53873 -1.7464 8.94738 
2 -0.0572382 0.11323 7.20465 
1 1.91391 0.0902821 8.97738 
1 5.35252 -3.32177 8.91533 
1 5.27871 -1.60111 10.6434 
1 5.37928 -1.75021 7.05938 
1 7.17004 -3.56088 7.20826 
1 7.17052 -3.38169 10.5809 
1 7.07664 -1.72636 8.89875 
1 5.19709 -0.0782059 8.8604 
1 7.17781 -0.101952 10.6956 
1 7.26009 -0.00797203 7.12165 
1 8.94668 -3.49142 8.90023 
1 9.02693 -1.83268 10.6836 
2 10.8304 -1.81686 8.83428 
1 8.86082 -1.73848 7.0774 
1 10.738 -3.66544 7.16149 
1 10.6945 -3.44402 10.6092 
2 10.6063 0.135167 6.98959 
2 9.09629 -0.0366601 8.87681 
2 12.7115 -1.7101 6.78804 
1 0.0366711 -8.90073 12.3434 
1 -1.57734 -7.02366 12.5969 
1 -1.76077 -5.10414 14.1127 
1 -3.53808 -5.29811 12.5962 
1 1.59266 -5.25874 13.9593 
1 3.4523 -5.15407 12.4172 
2 1.51689 -6.9669 12.2123 
1 -0.14434 -5.13791 12.3665 
1 -7.30736 -1.64245 12.3479 
1 -5.50987 -3.33976 12.5919 
1 -5.4174 -0.0372668 12.5316 
1 -1.98426 -0.0822112 12.4044 
1 -2.07241 -1.87934 14.1493 
1 -1.97623 -3.51881 12.4189 
1 -3.80812 -1.82631 12.4681 
1 -3.63695 -0.0352897 14.2675 
1 -0.117218 -1.70178 12.3251 
1 1.89476 -1.67818 14.1948 
1 1.65166 -3.36747 12.2824 
1 3.5812 -1.92403 12.5048 
2 0.0123158 -3.39141 14.0832 
1 1.70399 -0.163028 12.4231 
1 -0.180045 -0.214556 14.2683 
1 7.20943 -1.69821 12.417 
2 5.39252 -3.47101 12.2264 
1 5.37648 -0.119454 12.5675 
1 -7.078 1.41859 -12.7057 
1 -5.37506 3.31821 -12.8145 
2 -3.1623 3.51019 -14.2467 
2 -1.65451 1.45545 -14.4112 
2 -3.54908 1.63876 -12.5998 
1 -1.72338 3.49856 -12.3184 
1 -0.154445 3.49785 -14.257 
2 -0.0590963 1.6932 -12.4045 
1 -3.59045 -0.287884 -14.3357 
1 3.30934 3.39023 -14.2173 
1 3.47227 1.75858 -12.4855 
2 1.57414 3.53126 -12.4487 
1 1.57007 1.75426 -14.5065 
2 3.56685 0.0950892 -14.3033 
2 1.77653 -0.130538 -12.4899 
1 5.26336 2.03909 -14.2713 
1 7.24718 1.81159 -12.5308 
1 5.3685 3.41055 -12.3596 
2 5.48419 -0.00329523 -12.6476 
1 -1.88739 7.04748 -12.5124 
1 -3.73764 5.33904 -12.6293 
1 -0.151734 5.30485 -12.3788 
1 1.54552 7.02568 -12.5204 
1 3.40994 5.28717 -12.4257 
1 -12.3811 1.95253 -7.28174 
1 -8.88946 1.56891 -10.684 
1 -10.8321 2.20667 -9.13557 
2 -8.86088 3.5498 -8.98375 
2 -9.09941 1.82165 -7.20661 
1 -10.7003 3.72682 -7.06734 
1 -7.17673 3.42737 -11.0521 
2 -5.41332 1.69422 -10.8553 
2 -7.04173 1.68989 -8.86987 
1 -5.38511 3.47151 -8.91966 
1 -7.06044 3.62924 -7.0232 
2 -5.39674 1.74306 -6.9621 
1 -3.69499 3.55338 -10.874 
1 -1.94902 1.60644 -10.6218 
1 -3.76268 1.58999 -8.93944 
2 -1.99403 3.46542 -8.93528 
2 -3.79033 3.56398 -7.04061 
1 -1.85166 1.70335 -7.1694 
1 -0.0876697 1.6693 -9.05286 
1 -0.294106 3.52541 -7.18646 
1 -0.0548184 3.54415 -10.6361 
1 3.50126 3.54496 -10.7645 
1 1.87932 1.71732 -10.7076 
1 3.487 1.7285 -8.98424 
2 1.67355 3.53648 -8.92504 
1 3.5576 3.50283 -7.12262 
2 1.58029 1.72407 -7.18389 
1 3.53636 -0.0689073 -10.6948 
2 7.10175 3.61288 -10.63 
1 5.2829 1.70147 -10.7221 
1 7.08195 1.83602 -8.89228 
1 5.22992 3.60313 -8.90018 
1 7.01282 3.49671 -7.21432 
1 5.25163 1.84144 -7.15693 
2 5.3066 0.0369093 -8.95697 
2 7.16096 0.0261743 -7.04405 
2 7.30615 0.00930412 -10.7721 
1 8.98736 2.11473 -10.9058 
2 10.7078 1.82446 -8.91366 
1 10.8799 3.83018 -7.14299 
1 8.97783 3.66057 -8.84962 
1 8.93859 1.78611 -7.07161 
2 12.4693 1.83637 -6.87823 
1 8.87852 0.142092 -8.97957 
2 10.7066 -0.00887955 -7.15764 
1 10.3193 0.0278585 -10.8109 
1 -10.5926 5.16056 -9.01144 
1 -10.6774 6.76657 -7.16922 
1 -9.11027 7.10825 -8.89652 
1 -8.80672 5.42309 -7.13058 
1 -8.67869 5.24902 -10.7155 
1 -7.20413 7.13597 -10.4648 
2 -5.57364 5.1727 -10.7307 
1 -7.17096 5.28329 -8.83133 
1 -5.37949 7.26875 -8.95674 
2 -7.16105 7.23858 -7.22513 
1 -5.38275 5.45289 -7.2027 
2 -3.73534 7.11352 -10.7674 
1 -1.91995 5.29863 -10.7975 
1 -1.89505 7.09026 -8.96581 
2 -3.65345 5.29947 -8.94943 
1 -3.54715 7.19588 -7.14861 
1 -1.90239 5.32862 -7.09979 
1 -0.245909 7.13487 -7.29843 
2 -0.235087 5.34839 -9.0573 
1 -0.256288 7.22891 -10.7227 
1 3.51317 7.09161 -10.8241 
1 1.73877 5.30156 -10.6675 
2 1.60191 7.14805 -8.97609 
1 3.46775 5.25684 -9.06019 
1 3.4449 7.05451 -7.31855 
1 1.68037 5.24731 -7.18716 
1 7.18807 7.07086 -10.6649 
1 5.31513 5.33086 -10.8041 
1 7.09767 5.34836 -8.81388 
1 5.23636 6.95401 -8.981 
1 7.15627 7.08214 -7.1124 
1 5.28533 5.32083 -7.16212 
1 8.97654 5.14999 -10.6379 
1 10.7462 5.39947 -8.84339 
2 10.73 6.91682 -6.80171 
1 8.94485 7.07821 -8.89659 
1 8.85699 5.37822 -7.01477 
1 -9.0407 8.93391 -7.28786 
1 -5.37529 9.15992 -10.506 
1 -5.39595 10.7236 -8.7237 
1 -7.20795 9.14367 -8.92253 
1 -5.48363 9.04393 -7.01476 
1 -7.22111 10.6415 -7.00118 
2 -2.15258 9.04889 -10.7303 
2 -1.98667 10.7578 -8.70403 
1 -3.76647 10.9897 -6.93266 
1 -3.73397 8.9601 -8.73224 
1 -1.88325 8.94057 -7.07674 
1 -0.277328 12.5067 -8.7386 
1 -0.247863 9.05226 -9.0108 
1 -0.139313 10.6248 -7.20328 
1 1.52444 8.81612 -10.7593 
1 1.59733 10.7958 -9.04031 
1 3.35093 10.7758 -7.18399 
1 3.32634 8.80388 -9.11263 
1 1.64991 8.79587 -7.28791 
2 1.51409 12.5622 -7.12052 
1 5.28217 8.73447 -10.6285 
1 5.16654 10.4333 -8.8336 
1 7.1836 10.7047 -7.29725 
1 6.98883 8.84127 -8.82039 
1 5.14706 8.87021 -7.1345 
1 8.83509 8.77875 -7.13359 
1 -1.89671 12.6138 -6.8661 
2 -14.148 3.47651 -3.31799 
1 -12.5004 1.79786 -3.4634 
1 -12.6421 0.33134 -5.48065 
1 -14.325 0.151198 -3.62818 
2 -12.4688 3.56488 -5.17182 
2 -10.5799 1.80234 -5.18526 
1 -10.7855 3.6806 -3.32498 
1 -8.90027 3.7153 -5.29086 
2 -8.89327 1.84412 -3.35631 
2 -8.88714 -0.0564872 -5.35214 
1 -7.10591 1.81227 -5.30178 
2 -7.05841 3.79696 -3.57328 
1 -5.31019 3.72897 -5.26205 
1 -5.31903 1.98842 -3.59043 
1 -5.24614 0.0387415 -5.19154 
1 -3.45547 1.81706 -5.30033 
1 -1.86222 3.59145 -5.41206 
1 -3.55754 3.66009 -3.53879 
1 -1.77674 1.84191 -3.59597 
1 -0.0740841 1.7468 -5.22538 
1 -0.15845 3.59858 -3.57431 
1 -3.50581 0.0871453 -3.4626 
1 3.61553 1.74075 -5.46946 
2 1.64725 3.56226 -5.42275 
1 3.50867 3.65696 -3.66061 
2 1.71551 1.71854 -3.69222 
1 7.09273 1.77286 -5.42977 
1 7.15014 3.61344 -3.68252 
1 5.40759 3.57911 -5.42105 
1 5.25587 1.81791 -3.72732 
1 6.96473 -0.0278358 -3.70811 
1 5.26189 -0.0911308 -5.47674 
1 10.6355 1.96639 -5.40176 
1 10.6664 3.49965 -3.44932 
2 8.88066 3.61259 -5.36582 
1 8.782 1.73089 -3.66631 
1 12.403 3.63928 -5.28277 
1 12.4606 1.69929 -3.71912 
1 9.02937 0.0238589 -5.32933 
1 10.6407 0.0234092 -3.64893 
2 12.6187 -0.057007 -5.34819 
1 14.1826 3.4399 -3.49609 
1 -12.5539 5.37014 -3.37278 
1 -10.7137 7.23531 -3.44666 
1 -10.7155 5.35003 -5.17321 
2 -9.00157 7.16818 -5.39919 
1 -8.92778 5.3493 -3.57916 
1 -7.14844 7.11493 -3.51061 
1 -7.22202 5.35841 -5.34295 
1 -5.44943 7.11585 -5.37749 
1 -5.27731 5.43256 -3.50246 
1 -1.94258 7.1106 -5.28551 
1 -3.55276 7.26024 -3.57239 
1 -3.73988 5.42261 -5.3806 
1 -1.85564 5.37902 -3.59365 
1 -0.0941566 5.39989 -5.46223 
2 0.0267379 6.964 -3.45196 
1 1.66979 7.0623 -5.54873 
2 3.43264 6.96838 -3.63103 
1 3.52253 5.27007 -5.41284 
1 1.70924 5.3236 -3.62363 
1 7.09341 7.08654 -3.64678 
1 7.11565 5.39587 -5.44259 
2 5.20226 7.06475 -5.5265 
1 5.35632 5.3757 -3.69178 
1 10.6742 7.17118 -3.64083 
1 10.6839 5.36484 -5.13 
1 8.98163 7.11902 -5.34629 
1 8.78574 5.35137 -3.58868 
2 12.4662 5.30178 -3.35502 
1 -8.80739 10.7403 -5.30012 
1 -10.7785 8.85212 -5.30925 
1 -8.80492 8.87057 -3.43753 
1 -10.7563 10.4762 -3.65286 
1 -7.24809 10.8726 -3.36621 
1 -5.55635 10.814 -5.32476 
1 -7.3825 8.9236 -5.32648 
1 -5.5034 8.99077 -3.65259 
1 -1.84633 10.6867 -5.24962 
1 -3.52644 10.6663 -3.47848 
2 -3.67347 9.02394 -5.399 
1 -1.82252 8.94876 -3.49236 
1 -0.0617758 10.6229 -3.51753 
1 -1.75096 12.406 -3.34508 
1 -0.134283 8.73572 -5.3727 
2 1.608 10.5368 -5.45849 
1 3.45482 10.6074 -3.6864 
1 3.36019 8.72149 -5.53313 
1 1.65233 8.70903 -3.6416 
1 1.57113 12.3012 -3.59531 
1 -0.119773 12.4352 -5.22284 
1 7.08416 10.7987 -3.77093 
2 5.25403 10.6856 -5.59627 
1 7.0534 8.88699 -5.52161 
2 5.37908 8.88415 -3.66617 
1 10.7529 8.8558 -5.40246 
1 9.0482 10.6077 -5.58869 
1 8.78734 8.90576 -3.65336 
1 -5.26675 12.2953 -3.20353 
1 -3.56831 12.5629 -5.01125 
2 -3.40067 14.147 -2.88604 
1 0.207306 14.2913 -3.55778 
1 3.46001 12.4286 -5.39119 
2 2.98399 14.1624 -3.65685 
1 5.26644 12.6388 -3.87859 
1 -12.6008 0.0671142 -1.74125 
1 -14.2813 3.31301 0.0493942 
1 -14.3719 1.6927 -1.70089 
1 -14.1033 1.69341 2.08504 
1 -14.394 0.0392131 0.0858954 
1 -9.04767 0.0512632 -1.73082 
1 -12.4048 1.71119 -0.00785982 
2 -12.4233 3.50032 1.87583 
1 -12.5369 3.59012 -1.55128 
2 -10.6235 3.6245 0.0218777 
1 -10.8184 1.69628 -1.61104 
1 -10.7204 1.77989 1.80123 
1 -8.89013 3.73504 -1.78568 
1 -8.94971 3.53524 1.83787 
1 -8.8232 1.80849 -0.0704574 
2 -9.07893 0.0226597 1.73855 
1 -10.7877 -0.113196 -0.0604702 
2 -12.4256 0.0247407 1.83152 
1 -7.15853 3.63562 0.082534 
1 -7.0882 1.88014 -1.72273 
1 -7.2586 1.75129 1.7983 
1 -5.22824 3.57057 -1.71699 
1 -5.47028 3.64267 1.97512 
1 -5.38977 1.88013 0.0590783 
1 -5.35051 0.220448 -1.74708 
2 -3.66376 3.62078 0.181999 
1 -3.52983 1.80858 -1.86224 
2 -1.92001 3.67437 -1.72328 
1 -3.66413 1.80978 1.76392 
1 -1.71848 3.60688 1.80929 
1 -1.81547 1.84644 -0.0115861 
1 -0.149348 1.78309 -1.78376 
1 -0.0143087 3.64678 0.0218633 
1 -0.0641477 1.82537 1.78545 
2 3.53873 3.62138 -0.0708593 
1 3.39469 1.72871 -1.95723 
2 1.6054 3.60589 -1.85292 
1 3.43925 1.7962 1.80646 
1 1.78186 3.6171 1.79694 
2 1.64339 1.77044 -0.0644219 
2 3.53434 -0.0617957 -0.0848229 
1 7.06013 3.47843 -0.0922757 
1 7.09654 1.78879 -2.03551 
1 7.01412 1.74191 1.78113 
1 5.25253 3.65056 -1.89979 
1 5.34457 3.55183 1.78619 
2 5.29042 1.81043 -0.104299 
1 7.17244 0.0719496 -0.0904653 
1 8.78427 -0.0517342 -1.91142 
1 10.5052 3.6717 -0.181509 
1 10.6431 1.93392 1.65686 
2 10.6087 1.73919 -1.85797 
1 8.73781 3.65343 -1.88075 
1 8.84141 3.53568 1.70119 
1 8.78322 1.83352 -0.0794379 
2 8.81501 0.0487563 1.74853 
1 12.3917 3.41192 -1.80127 
1 12.3618 1.79011 -0.0665138 
1 12.3534 3.69533 1.45849 
1 10.5994 0.0654426 -0.0129014 
1 12.3012 0.0464058 1.62559 
1 14.1626 3.77997 -0.135352 
1 14.1652 1.99466 1.45612 
2 14.2208 1.81618 -1.67583 
1 14.227 0.0843424 0.200741 
1 -12.6994 5.3917 0.0752784 
1 -12.4251 7.19674 -1.67345 
1 -12.4409 7.05466 1.86105 
1 -10.7838 7.08074 0.0662115 
1 -10.5629 5.35679 -1.66349 
1 -10.6944 5.22804 1.91573 
1 -8.83879 7.16579 -1.63706 
2 -9.01438 7.20283 1.8496 
1 -8.92207 5.36319 0.171699 
1 -7.08155 7.26564 0.161153 
1 -7.00318 5.39226 -1.66402 
2 -5.26354 7.20432 -1.70147 
1 -7.18271 5.43497 1.8124 
1 -5.24195 7.19954 1.86372 
1 -5.27512 5.41263 0.101529 
1 -3.50861 7.1911 -0.00516527 
1 -1.84498 7.15444 -1.67233 
1 -1.66571 7.16638 1.82672 
1 -3.6336 5.40532 -1.83494 
1 -3.55483 5.49613 1.85988 
2 -1.76267 5.52749 0.0355865 
1 -0.00736481 7.22603 -0.0206054 
1 -0.0193378 5.37931 -1.59123 
1 0.151595 5.35964 1.78227 
1 3.51901 7.14896 -0.0646516 
1 1.80168 7.07762 -1.75564 
2 1.81284 7.24984 1.80482 
1 3.56005 5.2621 -1.83716 
2 3.61762 5.37493 1.7912 
1 1.82445 5.39233 0.0119249 
1 7.08216 7.07879 -0.000387359 
1 6.99879 5.28816 -1.84779 
2 5.29987 7.14454 -1.77653 
1 7.08649 5.31536 1.71104 
1 5.27919 7.15096 1.81857 
1 5.36159 5.34603 -0.0147107 
1 10.3938 7.11211 -0.134892 
1 10.5925 5.36616 1.63021 
1 10.54 5.3881 -1.99247 
1 8.73235 7.10286 -1.81886 
2 8.87321 7.15659 1.6414 
1 8.76268 5.29938 -0.0623664 
2 12.3383 7.21265 1.25023 
1 12.4082 7.34062 -1.72326 
1 12.319 5.28514 -0.265255 
2 -9.00013 10.7058 -1.68654 
1 -8.88591 10.774 1.58255 
2 -10.6305 8.96233 -1.63216 
1 -10.7882 8.97785 1.42296 
1 -8.85811 8.9422 0.016051 
1 -7.13875 10.7597 0.00194968 
1 -5.25769 10.7626 1.77436 
1 -5.27618 10.6062 -1.67014 
1 -7.1619 8.91133 -1.66752 
1 -7.05735 9.07315 1.79594 
1 -5.25981 8.92069 0.102254 
1 -3.45942 12.2624 -1.59452 
1 -3.54307 10.678 0.0101189 
2 -1.74438 10.7851 1.75712 
1 -1.77064 10.7136 -1.5685 
1 -3.53272 8.9383 -1.75393 
2 -3.52305 8.9668 1.96107 
1 -1.73164 8.91544 0.0201687 
1 -0.00433076 8.89824 1.83883 
1 -1.55239 12.5723 0.0343882 
1 0.188645 12.6039 1.77606 
2 -0.0309576 8.88519 -1.77599 
1 0.0113122 10.7131 0.0884289 
1 3.47486 10.6602 -0.0390211 
1 1.88687 10.7471 1.82352 
1 1.78891 10.6477 -1.8686 
1 3.56473 8.88866 -1.89904 
1 3.55114 9.02961 1.6721 
1 1.76823 8.96172 0.00505602 
1 7.05534 10.7436 -0.0371849 
1 5.21628 10.6623 1.71954 
2 5.36942 10.818 -1.98327 
1 7.16733 8.96309 -1.87372 
1 6.95261 9.01228 1.83491 