ITEM: TIMESTEP
1160000
ITEM: NUMBER OF ATOMS
1289
ITEM: BOX BOUNDS pp pp pp
-100 100
-100 100
-100 100
ITEM: ATOMS type x y z 
1 -1.87919 -7.23576 -12.4751 
1 -3.60707 -5.41172 -12.5869 
1 -0.0514686 -5.37176 -12.5219 
1 1.66066 -7.02353 -12.386 
1 3.34819 -5.19639 -12.7883 
1 -7.08993 -1.74247 -12.3686 
2 -5.45839 -3.81425 -12.3984 
1 7.05347 -0.0053185 10.5981 
2 -1.8761 -1.84351 -14.4351 
2 -3.79828 -1.93207 -12.4324 
1 -1.90722 -3.59601 -12.5698 
1 -0.1897 -1.73857 -12.4854 
2 5.16319 -3.36484 12.3862 
1 7.01293 -1.67002 12.4646 
1 3.61404 -0.139151 14.2691 
1 -0.126176 -3.62458 -14.2088 
2 3.5564 -3.16487 -14.1976 
1 1.71914 -3.51471 -12.5739 
1 3.46195 -1.69307 -12.3114 
1 1.54082 -1.74686 -14.2134 
2 14.2428 -0.0397951 3.49535 
2 3.38372 -0.0973985 -14.2313 
1 5.36856 -1.6437 -14.2893 
2 7.25116 -1.81937 -12.3774 
2 5.38785 -3.53373 -12.4779 
1 1.64739 -0.0825676 12.4436 
1 -1.76678 -12.6481 -6.97278 
1 1.79441 -12.3524 -7.09437 
1 -8.95881 -8.85923 -7.08714 
2 -5.32321 -10.7702 -8.76699 
1 -5.41022 -8.87813 -10.6319 
1 -7.34884 -8.8258 -8.88665 
1 -5.38246 -9.02643 -7.01731 
1 -7.23803 -10.7053 -7.00076 
1 -2.00481 -10.7347 -8.86814 
1 -1.93227 -9.08339 -10.872 
1 -3.751 -10.9076 -7.05501 
2 -3.65671 -8.88802 -8.95448 
1 -2.06376 -8.99248 -7.03544 
2 -0.0668999 -10.6317 -7.35608 
1 -0.275262 -8.89427 -8.95747 
1 -0.0243892 -10.7739 -10.3587 
2 1.9145 -10.7969 -8.9811 
1 1.65849 -8.96133 -10.805 
1 3.618 -10.614 -7.05607 
2 3.39424 -8.83189 -8.94339 
1 1.82029 -9.04919 -7.21672 
1 5.04523 -10.6835 -8.90682 
1 6.96575 -8.9466 -9.02699 
1 5.26463 -8.81428 -7.25032 
1 7.0145 -10.5865 -7.14393 
1 5.20502 -8.81492 -10.7133 
1 8.87066 -8.78608 -7.30925 
1 -10.6377 -5.16049 -8.7791 
1 -9.05084 -5.10486 -10.5224 
1 -8.93831 -7.05919 -8.89811 
2 -8.83328 -5.20713 -7.09463 
2 -10.5627 -6.89668 -7.06031 
1 -7.33167 -6.9035 -10.7146 
1 -5.51546 -5.42428 -10.5509 
1 -7.11356 -5.36511 -8.79678 
1 -5.35575 -7.14181 -8.73943 
2 -7.03408 -7.14632 -7.04782 
1 -5.36564 -5.30943 -7.02885 
2 -3.74356 -7.20212 -10.8915 
1 -1.84748 -5.3708 -10.9197 
1 -1.91293 -7.19108 -9.07183 
1 -3.73323 -5.46339 -8.8873 
1 -3.71807 -7.22666 -7.072 
2 -1.98328 -5.39895 -7.0591 
2 -0.0478722 -5.39617 -9.06341 
2 0.0102944 -7.25825 -7.1472 
1 -0.204073 -7.22925 -10.8538 
2 3.51549 -6.99256 -10.8197 
1 1.83985 -5.16863 -10.7448 
1 1.74696 -7.04215 -9.12084 
1 3.56983 -5.28215 -8.98321 
1 3.59101 -7.10319 -7.20534 
2 1.82503 -5.24542 -7.20801 
1 7.09649 -7.11923 -10.7822 
1 5.37069 -5.33577 -10.8296 
1 5.37445 -7.11935 -8.99941 
1 7.10527 -5.34175 -9.08403 
1 7.00728 -7.11371 -7.20477 
1 5.37872 -5.32977 -7.11892 
1 8.90108 -5.21775 -10.6271 
1 10.626 -4.9304 -8.8993 
1 10.8172 -6.90834 -7.12155 
2 8.89626 -7.12638 -8.87053 
1 8.88169 -5.23316 -7.29777 
1 -12.4919 -1.72946 -6.8098 
1 -10.8296 -1.83967 -8.86253 
1 -8.9737 -1.90869 -10.5637 
1 -10.775 -3.57752 -7.10902 
1 -8.82954 -3.33829 -8.791 
1 -9.1085 -1.85614 -7.02286 
1 -7.12348 -3.5418 -10.507 
1 -5.46837 -1.88796 -10.6139 
1 -7.18397 -1.64212 -8.67498 
1 -5.31165 -3.51242 -8.84155 
1 -7.15493 -3.49407 -6.92742 
1 -5.34331 -1.78295 -7.0208 
1 -5.32415 -0.113966 -8.80859 
1 8.75702 0.00148439 5.3331 
1 -3.65279 -3.81977 -10.6307 
1 -1.87282 -1.87427 -10.7174 
1 -3.58326 -1.80099 -8.77278 
2 -1.94929 -3.6519 -8.84599 
1 -3.72961 -3.51937 -7.03177 
1 -1.834 -1.83633 -7.10888 
1 -0.190978 -3.53347 -7.05005 
1 -0.184297 -1.77599 -9.0053 
1 -0.136619 -3.58138 -10.8872 
1 3.54847 -1.71379 12.3664 
1 3.57948 -3.61448 -10.8853 
1 1.65114 -1.95847 -10.8217 
1 1.55779 -3.52607 -8.93979 
2 3.53733 -1.97792 -9.02362 
1 3.65093 -3.55312 -7.14791 
1 1.78051 -1.76236 -7.1695 
1 3.59551 0.0832532 3.61356 
1 1.76154 -3.49211 12.278 
1 7.17085 -3.52031 -10.6402 
1 5.29963 -1.80705 -10.779 
1 7.02729 -1.80916 -9.08778 
1 5.32282 -3.75581 -9.03338 
1 7.08293 -3.53245 -7.3037 
1 5.37906 -1.76323 -7.28282 
1 8.93503 -1.78119 -10.7133 
1 10.7234 -3.39076 -7.01997 
1 8.92298 -3.41471 -8.90759 
2 8.92498 -1.61036 -7.25802 
2 10.7631 -1.6964 -8.94957 
1 12.5254 -1.95419 -7.13493 
1 -5.43796 -12.5809 -3.41291 
1 -2.11824 -14.2764 -5.17658 
1 -3.75085 -12.5893 -5.3048 
1 -0.0040352 -12.5394 -5.34412 
2 -0.148115 -14.3081 -3.6989 
2 1.86388 -12.5188 -3.70694 
1 -10.6959 -8.88921 -5.30775 
1 -8.94898 -10.6748 -5.28263 
2 -9.01846 -8.9704 -3.38296 
1 -7.16956 -10.723 -3.29061 
1 -5.53356 -10.8885 -5.29241 
1 -7.15631 -8.96163 -5.19796 
1 -5.44331 -8.98477 -3.59114 
1 -1.98064 -12.5869 -3.55345 
2 -1.89548 -10.8135 -5.46426 
1 -3.66518 -10.7136 -3.67056 
1 -3.76371 -8.90044 -5.31011 
2 -1.86161 -8.81322 -3.54683 
1 0.00787199 -8.97495 -5.43068 
1 3.56142 -12.5226 -5.53716 
2 -0.0973054 -10.7113 -3.51084 
1 1.71037 -10.7077 -5.36225 
1 3.43433 -10.5629 -3.56425 
1 3.51859 -8.99468 -5.37349 
1 1.70447 -8.91887 -3.54749 
1 5.1181 -12.4892 -3.65543 
2 6.96445 -10.6961 -3.68341 
1 5.29365 -10.6723 -5.52544 
1 7.10198 -8.87876 -5.46591 
2 5.33757 -8.83803 -3.71088 
1 8.85958 -10.5606 -5.37592 
2 8.87998 -8.78956 -3.66897 
1 10.6285 -8.66119 -5.53778 
1 -12.6605 -5.54085 -3.32908 
1 -10.6559 -7.09172 -3.44782 
1 -10.8479 -5.33726 -5.271 
2 -8.91309 -7.1389 -5.15678 
1 -8.85396 -5.34549 -3.42719 
1 -7.10852 -7.15575 -3.48705 
1 -7.10369 -5.38997 -5.30503 
1 -5.41283 -7.0854 -5.20748 
1 -5.36976 -5.32618 -3.43138 
1 -1.90666 -7.14747 -5.41321 
1 -3.61888 -7.07871 -3.50073 
1 -3.6405 -5.37297 -5.18907 
1 -1.82502 -5.32715 -3.48682 
1 -0.0763662 -7.0811 -3.64053 
2 -0.0780355 -5.28513 -5.19961 
2 1.92533 -7.18532 -5.33666 
1 3.58071 -6.97343 -3.52458 
1 3.66595 -5.24152 -5.36639 
1 1.87747 -5.33836 -3.68739 
1 7.13722 -7.13159 -3.56932 
1 5.32115 -7.06265 -5.37348 
1 7.10414 -5.29622 -5.29681 
1 5.43738 -5.30325 -3.57212 
1 10.8799 -7.10172 -3.67646 
1 10.8411 -5.29667 -5.32436 
2 8.83104 -7.0693 -5.43693 
2 9.00531 -5.32931 -3.54126 
1 12.6424 -5.38901 -3.25651 
1 -14.2681 -3.63146 -3.39721 
1 -5.48924 0.0193619 12.4799 
1 -12.6143 -3.72153 -5.27182 
2 -12.5844 -1.82231 -3.55781 
1 -10.7176 -1.86249 -5.26765 
2 -10.8451 -3.66189 -3.43616 
1 -9.05239 -3.73084 -5.18542 
2 -8.94068 -1.85145 -3.46205 
1 -3.57671 0.0725202 14.2988 
1 -10.8125 0.025783 -3.5268 
2 -7.18877 -1.7793 -5.26289 
1 -7.02522 -3.62225 -3.43462 
1 -5.28149 -3.59436 -5.23143 
1 -5.27453 -1.70532 -3.54391 
1 1.80335 -1.94863 14.1713 
1 -3.6125 -1.77257 -5.22352 
1 -1.91191 -3.52691 -5.20665 
1 -3.63622 -3.55529 -3.4508 
1 -1.78764 -1.78797 -3.42141 
1 -0.0871375 -3.53137 -3.51073 
1 0.0245348 -0.292942 14.3584 
1 -0.0234135 -1.75857 12.3428 
1 -1.86161 -0.134814 12.4818 
1 -0.0864005 -1.85444 -5.352 
1 1.78409 -3.52304 -5.32983 
1 3.52205 -1.7399 -5.46621 
1 3.71994 -3.53207 -3.67397 
2 1.67709 -1.80483 -3.53581 
1 -1.9945 -1.82007 14.2796 
1 1.76373 -0.0443584 -5.31596 
1 7.21126 -1.69679 -5.28173 
1 7.16445 -3.47049 -3.75692 
1 5.50043 -3.47447 -5.42895 
1 5.42188 -1.75767 -3.67398 
1 -1.93639 -3.4135 12.4347 
1 10.5394 -1.62811 -5.45601 
1 10.6626 -3.47152 -3.61 
1 8.91769 -3.43437 -5.48785 
1 9.00824 -1.63526 -3.66923 
1 12.0285 -1.68785 -3.47849 
2 12.4474 -3.40714 -5.24177 
2 14.0625 -2.94155 -3.31517 
2 14.1423 -0.33441 -3.64981 
1 -5.15316 -12.5325 0.166516 
2 -7.00874 -12.3773 1.58069 
2 -7.05487 -12.3596 -1.42187 
1 -3.4289 -14.2878 0.315949 
1 -1.66775 -14.4349 -1.50339 
1 -1.20393 -14.4378 1.29046 
1 -3.58378 -12.6744 -1.69394 
1 2.22085 -14.3572 -1.88968 
1 0.577588 -14.7325 -0.407294 
1 3.5382 -14.1449 0.163278 
2 1.59723 -14.1925 1.91844 
1 5.00082 -14.154 -1.74109 
1 5.19433 -12.4047 0.0770722 
1 -10.8494 -10.4157 0.0925761 
1 -11.0247 -8.88493 -1.83573 
1 -9.0548 -10.5592 -1.49501 
2 -8.85795 -10.6601 1.60008 
1 -9.04658 -8.72795 -0.0224163 
2 -10.6755 -8.8953 1.88011 
1 -6.9822 -10.4261 -0.00405235 
2 -5.29941 -10.7013 -1.74751 
2 -5.16164 -10.5136 1.76842 
1 -7.15385 -8.80748 -1.73202 
1 -7.23369 -8.7935 1.66823 
1 -5.27082 -8.77948 -0.0648427 
1 -1.70662 -12.3698 0.0490332 
1 -3.39079 -12.33 1.80182 
1 -3.43846 -10.7342 -0.0420736 
1 -1.86129 -10.7917 -1.77249 
1 -1.74747 -10.6044 1.77855 
1 -3.5145 -8.9575 -1.7142 
1 -3.46998 -8.81828 1.76984 
1 -1.75014 -8.95618 -0.0803814 
1 0.0400013 -8.82225 -1.77233 
1 0.0151761 -12.4109 1.79529 
1 0.0235389 -10.6269 -0.0344188 
2 0.0125963 -12.614 -1.83575 
2 1.66164 -12.496 -0.0430857 
1 3.53004 -12.4046 1.80665 
1 3.49742 -12.3216 -1.83058 
1 0.081189 -8.85444 1.72199 
1 3.58429 -10.6546 0.0372863 
1 1.85269 -10.5536 -1.75064 
1 1.68698 -10.7329 1.79806 
1 3.52905 -8.83646 -1.84284 
1 3.55926 -9.02925 1.72487 
1 1.84612 -8.84384 0.0469636 
2 6.8179 -12.3504 -1.85761 
1 7.06626 -12.3739 1.48218 
1 6.99272 -10.4314 -0.201898 
1 5.20583 -10.6702 -1.73315 
1 5.35672 -10.6255 1.72983 
1 7.07101 -8.90217 -1.92602 
2 7.14289 -8.85808 1.68073 
1 5.22937 -8.77531 0.0295427 
1 9.00179 -10.7778 -2.29851 
1 8.76239 -11.9197 -0.388355 
1 10.7957 -8.94887 -2.08703 
1 10.669 -9.01379 1.63431 
2 8.95467 -9.04252 -0.208623 
1 8.90714 -10.7022 1.84303 
1 -12.6 -5.44083 0.291563 
1 -12.5636 -7.09039 -1.66406 
2 -10.7939 -7.09212 0.182529 
1 -10.731 -5.4247 -1.70667 
1 -10.7391 -5.33351 2.02035 
1 -8.77048 -7.06612 -1.77306 
1 -8.92097 -7.12596 1.76048 
1 -8.90824 -5.38693 0.0130074 
1 -7.13947 -7.0696 -0.0703892 
1 -7.09961 -5.34765 -1.83517 
1 -5.30023 -7.05568 -1.77269 
2 -7.20967 -5.41532 1.69529 
1 -5.33155 -7.09372 1.77203 
1 -5.34029 -5.40494 -0.068746 
1 -3.6154 -7.19266 -0.0381702 
1 -1.7874 -7.04606 -1.79201 
1 -1.82429 -7.18996 1.67336 
1 -3.51296 -5.4034 -1.70342 
1 -3.6921 -5.27019 1.82157 
2 -1.87412 -5.35537 0.111773 
1 0.0268411 -5.32468 -1.71689 
1 0.0429721 -7.0947 0.048399 
1 0.0213845 -5.39315 1.76109 
1 3.54719 -7.0284 -0.000311109 
2 1.64361 -7.01434 -1.93552 
1 1.82815 -7.19216 1.82425 
2 3.6441 -5.27094 -1.82065 
1 3.49651 -5.38314 1.72956 
1 1.85406 -5.34404 0.0156637 
1 7.16758 -7.16929 -0.0785505 
1 5.36159 -7.06754 -1.76957 
1 7.08975 -5.36092 -1.66996 
1 5.25219 -7.14312 1.78218 
2 7.12915 -5.41222 1.76158 
1 5.37654 -5.3677 0.0624853 
1 10.6326 -7.20434 -0.0917766 
1 10.7173 -5.41018 1.57985 
1 10.6238 -5.37102 -1.90644 
1 8.9099 -7.16501 -1.87482 
1 8.95631 -7.15134 1.72673 
1 9.01581 -5.40415 -0.20249 
2 12.4982 -5.32335 -0.144667 
1 12.515 -7.12574 -1.7036 
1 12.4332 -7.19361 1.61871 
1 -14.2492 -3.54389 0.245856 
2 -14.2594 -1.79968 -1.671 
1 -14.2732 -1.71483 1.93318 
1 -12.5669 -3.61629 -1.68526 
1 -3.64954 -1.6492 12.4971 
1 -12.4218 -1.78562 0.0198192 
1 -12.3899 -3.47642 1.76606 
1 -10.872 -3.78924 -0.0180196 
1 -10.7781 -1.84094 -1.61679 
1 -10.7936 -1.73569 1.69206 
1 -8.94168 -3.61188 -1.68162 
2 -9.05722 -3.5537 1.74812 
1 -9.00279 -1.8224 0.0173609 
2 -0.147929 -3.56048 14.1779 
1 -7.09741 -1.73709 12.3652 
1 -7.17429 -3.59554 -0.0645857 
1 -7.20187 -1.80967 -1.68235 
1 -7.29564 -1.64603 1.65287 
1 -5.36303 -3.58524 -1.71655 
2 -5.44954 -3.50693 1.77911 
2 -5.45961 -1.65 -0.0549987 
1 5.23703 0.0237437 -5.27146 
1 -3.64087 -3.55474 0.0465455 
1 -3.62787 -1.68673 -1.71882 
2 -1.84857 -3.50776 -1.68137 
2 -3.57072 -1.67235 1.77918 
1 -1.88191 -3.34741 1.83026 
1 -1.85686 -1.73333 0.0499025 
1 -0.0851024 -1.78512 -1.70196 
1 0.00340445 -1.8132 1.71635 
1 -0.0321264 -3.62881 0.0276951 
1 0.0246558 0.0223982 -0.0988821 
2 3.68236 -3.53985 0.0197412 
2 1.72921 -3.52787 -1.79864 
1 3.55036 -1.73612 -1.89756 
1 1.75975 -3.50575 1.71343 
1 3.59527 -1.88269 1.84876 
1 1.74398 -1.77855 -0.0560903 
1 -5.38923 -3.45487 12.4539 
2 1.72733 -0.072412 1.75499 
1 7.18883 -3.71355 -0.0680998 
1 7.18583 -1.68083 -1.88305 
1 7.10933 -1.93722 1.88254 
1 5.36424 -3.53426 -1.87246 
1 5.39194 -3.60693 1.83406 
2 5.44077 -1.85459 -0.103923 
1 10.6291 -3.53797 -0.0893967 
1 10.5262 -1.90172 1.74147 
1 10.4711 -1.75809 -1.64182 
1 8.81649 -3.54188 -1.8762 
1 8.95394 -3.64053 1.72146 
2 8.75763 -1.74331 -0.10019 
1 12.2202 -3.45164 -1.78736 
1 12.2911 -1.76658 0.125256 
2 12.3324 -3.5684 1.75108 
2 12.3946 -0.152736 -1.63476 
1 8.94579 0.126711 -1.822 
2 14.1276 -3.42389 -0.267185 
1 14.7314 -1.42202 -1.41701 
1 14.3111 -1.9338 1.62828 
2 -5.18477 -12.4727 3.30384 
2 -2.99558 -14.1076 3.22188 
1 -0.210705 -14.115 3.65155 
2 -0.151691 -12.326 5.32988 
1 3.55878 -13.9828 3.45881 
1 -10.2298 -10.8382 3.75287 
1 -10.5371 -8.92998 5.32983 
2 -8.66436 -8.90953 3.55959 
2 -8.63675 -10.7759 5.46375 
1 -7.24509 -10.8476 3.45386 
1 -5.32153 -10.905 5.3892 
1 -7.0297 -8.85436 5.51166 
2 -5.50104 -8.80985 3.52765 
2 -3.23612 -12.5031 5.25296 
1 -1.61388 -12.2238 3.39245 
1 -1.69627 -10.6021 5.29986 
1 -3.50732 -10.6761 3.56588 
2 -3.57749 -9.01922 5.3755 
1 -1.75953 -8.82774 3.56202 
1 0.00527461 -10.4884 3.44139 
1 0.0267478 -8.77536 5.31664 
1 3.35232 -12.5028 5.41896 
1 1.6937 -12.4448 3.58208 
1 1.64739 -10.6384 5.41327 
2 3.50736 -10.7757 3.6398 
1 3.56311 -8.83383 5.44991 
1 1.82375 -8.84021 3.53708 
1 5.35917 -12.3142 3.53074 
1 7.15804 -10.8495 3.71078 
1 5.17016 -10.8061 5.68389 
2 7.0721 -8.86324 5.48652 
2 5.42098 -8.95682 3.63032 
1 9.04058 -10.4857 5.36218 
2 8.94668 -8.88732 3.56146 
2 10.684 -8.44814 5.2484 
1 -12.4299 -5.26502 3.71544 
1 -10.7174 -7.16748 3.61485 
1 -10.607 -5.36671 5.2835 
1 -8.85294 -7.12499 5.46696 
1 -8.91509 -5.38986 3.6168 
1 -7.06445 -6.9987 3.6739 
1 -7.11249 -5.45523 5.43475 
1 -5.34608 -7.13771 5.45094 
2 -5.28176 -5.31284 3.72738 
1 -1.77329 -6.98043 5.27431 
1 -3.55067 -7.13931 3.64639 
1 -3.58228 -5.29996 5.36015 
2 -1.84637 -5.28381 3.44019 
1 -0.0338671 -7.12077 3.50711 
2 -0.0249269 -5.39953 5.28382 
1 1.90302 -7.14358 5.24094 
1 3.5757 -7.26608 3.51851 
1 3.48332 -5.41569 5.36902 
1 1.75433 -5.32463 3.4742 
1 7.09749 -7.03694 3.61035 
1 5.27237 -7.11728 5.4614 
2 7.13383 -5.30964 5.48623 
2 5.29502 -5.35262 3.63303 
1 10.7481 -7.10942 3.33091 
1 10.5763 -5.42699 5.18024 
1 8.73879 -7.00737 5.31194 
1 8.98784 -5.3449 3.49208 
2 12.4164 -5.34584 3.53384 
1 -14.0578 -3.43157 3.57443 
1 5.32704 -0.0522068 12.623 
1 -12.4167 -3.55968 5.4606 
1 -12.4115 -1.79888 3.718 
1 -10.6779 -1.68039 5.44752 
1 -10.7333 -3.45391 3.70113 
1 -8.99218 -3.52297 5.40201 
2 -8.99046 -1.67016 3.74625 
1 -7.23713 -1.63723 5.65634 
2 -7.22417 -3.50872 3.69272 
1 -5.49659 -3.46181 5.58754 
1 -5.6005 -1.66311 3.67143 
2 -3.81306 -1.70232 5.29189 
2 -1.82646 -3.45219 5.21957 
1 -3.69662 -3.42309 3.6149 
1 -1.81599 -1.61185 3.51228 
1 -3.76259 -0.00771424 3.50283 
1 -0.0259847 -1.70038 5.3629 
1 -0.0285007 -3.52565 3.4504 
1 1.6785 -3.53314 5.25605 
1 3.53357 -1.78019 5.18149 
1 3.59535 -3.62298 3.57518 
1 1.7254 -1.79391 3.57444 
1 7.06234 -1.76609 5.27739 
1 7.15034 -3.64714 3.60569 
1 5.42389 -3.45556 5.38483 
1 5.29291 -1.83312 3.55101 
2 7.02215 0.0293451 3.56511 
2 10.6367 -1.71262 5.34982 
1 10.5488 -3.48891 3.53106 
2 8.90116 -3.52155 5.34073 
1 8.76842 -1.74073 3.50797 
2 12.3761 -1.7113 3.29406 
1 12.3795 -3.77182 5.38157 
1 14.1885 -3.62309 3.34008 
1 14.1384 -1.93371 5.06369 
1 -1.62051 -12.3541 7.3256 
1 -8.9275 -9.03004 7.20783 
1 -5.22528 -9.00683 10.6694 
1 -5.03673 -10.7291 8.97376 
1 -6.96592 -10.7901 7.15207 
2 -7.07901 -8.83662 8.76885 
1 -5.25129 -8.97419 7.15423 
2 -1.78415 -8.73749 10.7472 
1 -1.52404 -10.5408 9.01605 
1 -3.48997 -10.7761 7.07607 
1 -3.42153 -8.92558 8.87958 
1 -1.73809 -8.84397 7.15509 
1 -0.080646 -10.5133 7.05565 
1 1.53453 -12.3605 7.24245 
1 -0.0270507 -8.71696 8.9548 
1 1.48541 -10.5919 8.99752 
1 3.24178 -10.5622 7.23437 
1 3.47027 -8.87947 8.86246 
1 1.75574 -8.75624 7.16653 
1 1.70838 -8.75649 10.7989 
1 7.1899 -10.8184 7.01558 
1 5.2634 -8.83678 10.4927 
1 5.46995 -10.4744 8.77434 
1 7.2218 -8.71205 9.01509 
1 5.40446 -8.78416 7.23007 
1 8.90876 -8.80255 7.31208 
1 -10.6129 -5.35394 9.02092 
2 -10.6625 -7.12854 7.06329 
1 -8.9962 -7.19099 8.88005 
1 -8.85571 -5.38236 7.06131 
1 -8.69706 -5.60269 10.5847 
1 -6.94972 -7.21148 10.7066 
1 -7.13517 -5.43082 8.80962 
1 -5.29797 -7.23906 8.86441 
1 -7.13931 -7.17573 7.08709 
1 -5.24563 -5.39995 7.07524 
1 -5.38609 -5.40259 10.7905 
2 -3.60773 -7.04434 10.8219 
1 -1.89134 -5.18711 10.8243 
1 -1.89241 -7.00651 8.9007 
2 -3.69679 -5.34205 8.97426 
1 -3.55723 -7.13951 7.14725 
1 -1.80059 -5.27552 7.03603 
1 0.0288954 -7.13144 7.22009 
1 0.0209732 -7.02535 10.6767 
2 -0.122287 -5.34884 8.94156 
1 3.73503 -7.02876 10.667 
1 1.74759 -5.27904 10.6646 
1 1.82283 -7.09728 9.03139 
1 3.5539 -5.27222 9.01432 
1 3.57642 -7.18607 7.16972 
2 1.81593 -5.36584 7.18913 
1 6.97353 -6.97019 10.7257 
1 5.28676 -5.17803 10.6937 
1 5.30571 -7.04208 9.01054 
1 7.00273 -5.27595 8.8661 
1 7.0298 -7.04314 7.28801 
2 5.21123 -5.35037 7.217 
1 8.717 -5.1378 10.7045 
1 10.5968 -4.94026 8.96085 
1 10.7318 -6.80997 7.16341 
1 8.84799 -6.94947 9.00528 
1 8.90068 -5.23849 7.12043 
2 -11.9423 -1.85444 7.34282 
1 -9.0262 -1.7716 10.501 
1 -11.1081 -2.74195 9.49898 
2 -10.624 -3.93085 7.13415 
1 -8.82695 -3.69378 8.98367 
2 -9.20551 -1.73393 7.45705 
1 -11.1319 -0.297725 9.4809 
1 -7.21915 0.0980584 10.7832 
1 -7.18658 -3.57204 10.7893 
1 -5.40584 -1.68413 10.6977 
1 -7.07458 -1.70224 9.08378 
2 -5.47934 -3.59286 8.94179 
1 -7.24962 -3.65182 7.16586 
1 -5.5007 -1.6088 7.33619 
1 -3.6713 -3.50381 10.7264 
1 -1.86551 -1.70176 10.6516 
1 -3.76376 -1.70536 8.9264 
2 -1.93983 -3.39159 9.03424 
1 -3.6342 -3.50885 7.04167 
1 -1.94815 -1.71646 7.1321 
1 -0.0493448 -3.44211 10.6564 
1 -8.97695 -0.0114158 -8.75295 
1 -0.0554355 -1.74656 8.94407 
2 0.00800891 -3.47783 7.11859 
1 1.78214 -1.73812 7.06928 
2 3.47466 -3.48487 7.06886 
1 1.75573 -1.65522 10.6059 
1 1.70097 -3.43088 8.99768 
1 3.35992 -1.72477 8.85424 
1 3.51403 -3.44079 10.5738 
1 3.63531 -5.25648 12.3911 
1 1.67671 0.0187593 8.91693 
1 1.78423 -4.94081 14.1453 
1 6.97041 -3.49657 7.10453 
1 5.25539 -3.364 8.93321 
1 5.28093 -1.76707 7.16237 
1 7.00455 -1.74087 8.78562 
1 6.98276 -3.3792 10.5866 
1 5.32652 -1.72229 10.6318 
1 5.12678 -0.119079 8.82065 
2 9.05228 -0.0199376 9.08664 
1 8.68805 -3.59222 8.88307 
2 10.6432 -1.99475 8.98105 
1 8.86206 -1.93745 10.8906 
1 10.7071 -3.44329 7.07711 
1 8.87039 -1.83736 7.12569 
1 12.4569 -0.217832 9.20737 
2 12.5474 -1.85101 7.15578 
1 0.0943799 -8.55099 12.5906 
1 -0.0372881 -5.13053 12.201 
1 -1.73361 -6.9243 12.4797 
1 -3.62506 -5.24541 12.6199 
1 -0.0783355 -6.51324 14.1946 
2 1.74551 -6.82205 12.5405 
1 -7.14024 -0.107895 -10.5335 
1 3.57224 -0.101256 10.7762 
1 3.39432 0.00569606 7.00545 
2 3.6143 -0.0443046 0.0355582 
1 -0.216494 0.00658671 -10.8031 
1 10.4407 0.247032 -10.7322 
1 -7.16842 0.0843081 -0.0254945 
1 7.09068 0.12248 -3.60774 
1 -1.86288 -5.00032e-05 -1.77678 
1 -3.57698 0.0170109 -3.43978 
1 7.11335 0.0449504 -0.0143767 
1 5.40375 0.00799807 1.76599 
2 8.76297 0.0424635 1.77379 
1 0.0745617 -0.0737515 3.555 
2 5.30665 0.113674 -12.5662 
1 5.29921 0.00658256 5.38666 
2 10.6114 0.0576698 3.55882 
2 -1.94997 -0.0920629 -12.5258 
1 12.6877 0.0518597 5.48062 
1 7.17051 0.0456994 7.27023 
2 10.6444 0.00458899 7.28362 
1 -7.26083 1.51046 -12.3461 
1 -5.60858 3.42864 -12.4557 
2 -2.03823 2.0151 -14.3444 
2 -3.82465 1.87338 -12.5325 
1 -2.03287 3.81281 -12.5306 
2 -0.188903 1.98496 -12.5971 
1 -0.101247 3.85696 -14.1871 
1 3.43664 3.72427 -14.1149 
1 3.25777 1.84599 -12.4034 
2 1.68499 3.72454 -12.5407 
1 1.69369 1.8528 -14.3937 
1 5.04725 1.94236 -14.1307 
1 7.2509 1.68041 -12.738 
1 5.29035 3.64377 -12.539 
1 -1.82732 7.12228 -12.5361 
1 -3.68526 5.26614 -12.5234 
1 -0.0507235 5.57122 -12.5214 
1 1.72231 7.19061 -12.3428 
1 3.49295 5.50624 -12.3632 
1 -12.7844 1.731 -7.09138 
1 -11.0306 1.99465 -8.86241 
1 -9.16329 1.65239 -10.7571 
2 -9.1611 3.49441 -9.0519 
2 -9.036 1.92285 -7.0592 
1 -10.9679 3.78271 -7.19187 
1 0.232156 5.34789 12.4614 
1 1.83263 7.3123 12.4831 
1 3.57256 5.2011 12.4163 
1 -7.26191 3.46028 -10.735 
2 -5.40369 1.7315 -10.4969 
2 -7.15605 1.93381 -8.7924 
1 -5.40238 3.61771 -8.79235 
1 -7.23426 3.74049 -7.00017 
2 -5.32454 1.82511 -6.98153 
1 -10.6969 0.124743 0.000937957 
1 -3.66363 3.59912 -10.612 
1 -1.83623 1.83508 -10.7663 
1 -3.53266 1.79276 -8.95994 
2 -1.76671 3.48267 -9.02293 
2 -3.5061 3.57911 -6.85802 
1 -1.85543 1.71989 -7.11341 
1 -0.0916765 3.67934 -10.835 
1 -0.116112 1.63877 -8.94242 
1 -0.177113 3.5486 -7.05051 
1 -3.70489 -0.065573 -10.5774 
2 -12.4007 0.0737926 1.83368 
1 -1.54744 6.91111 12.5124 
1 -3.40378 5.30286 12.8661 
1 3.45888 3.50285 -10.8519 
1 1.57993 1.75881 -10.6841 
1 3.46982 1.88162 -8.99169 
2 1.60665 3.51074 -9.02925 
1 3.51208 3.56407 -7.33678 
2 1.74624 1.63533 -7.0726 
2 1.688 -0.127133 -8.92884 
2 6.96841 3.62622 -10.7799 
1 5.15554 1.86588 -10.7846 
1 7.16722 1.97765 -8.88189 
1 5.31949 3.47727 -8.93242 
1 6.9981 3.61227 -7.14554 
1 5.14663 1.79686 -7.0742 
1 7.04894 1.64425 12.5113 
1 5.23337 3.49197 12.6783 
2 7.19433 0.278243 -10.795 
1 8.92246 2.12224 -10.779 
2 10.7287 1.99948 -8.98288 
1 8.88994 3.70838 -8.9633 
1 8.95648 1.91502 -7.14643 
1 10.707 3.71557 -7.07061 
2 12.5848 1.92933 -6.87703 
1 -14.1802 -0.00686209 0.223042 
2 0.172787 3.39465 14.1244 
1 -0.0570959 1.62846 12.4684 
1 -10.7575 5.48147 -8.85829 
1 -10.7142 7.16595 -7.03026 
1 -8.96574 7.24664 -8.84046 
1 -9.07417 5.35828 -7.04451 
1 -8.5541 5.40789 -10.5952 
2 -5.53076 5.25199 -10.6505 
1 -7.10713 7.35586 -10.5561 
1 -7.08894 5.37001 -8.77359 
1 -5.4211 7.12521 -8.83167 
2 -7.24094 7.16501 -7.04443 
1 -5.41246 5.38644 -6.99398 
2 -3.6629 7.04164 -10.6403 
1 -1.78712 5.3851 -10.7359 
1 -1.79372 7.32137 -8.82063 
2 -3.50893 5.38499 -8.73907 
1 -3.6067 7.24907 -7.04122 
1 -1.80434 5.48681 -6.97026 
1 -0.0689726 7.16014 -10.7219 
1 -0.0923033 7.24498 -6.97474 
2 -0.194218 5.50111 -8.80781 
1 3.50183 7.276 -10.6592 
1 1.66732 5.38145 -10.6256 
2 1.65874 7.31795 -8.87685 
1 3.47552 5.34507 -8.98495 
1 3.34001 7.31822 -7.04574 
1 1.8525 5.34467 -7.13169 
1 7.05038 7.01571 -10.6494 
1 5.22326 5.50813 -10.6757 
1 7.08867 5.31298 -8.88832 
1 5.2417 7.09373 -8.64728 
1 7.22713 7.21222 -7.28305 
1 5.27156 5.34435 -7.12665 
1 8.82047 5.3403 -10.683 
1 10.7217 5.09756 -8.89483 
1 8.87254 7.04637 -9.04602 
1 8.82412 5.36715 -7.08283 
2 10.5421 6.8716 -7.11065 
1 -9.05992 9.04983 -6.98743 
1 -5.39333 9.04026 -10.6326 
1 -5.48295 10.6869 -8.7954 
1 -7.25613 9.05409 -8.83517 
1 -5.40995 8.9656 -7.12902 
1 -7.06713 10.7062 -6.94293 
2 -1.70201 8.88641 -10.553 
2 -2.02183 10.6769 -8.82346 
1 -3.76147 10.835 -7.04445 
1 -3.68948 8.82098 -8.85023 
1 -1.89405 8.99355 -7.07299 
1 -0.035097 10.7266 -7.03426 
1 -0.241613 12.2778 -8.69133 
1 -0.0589338 9.11972 -8.7691 
1 1.65284 8.95683 -10.6099 
1 1.79666 10.7042 -9.10108 
1 3.46177 10.7863 -7.09261 
1 3.50106 9.00132 -8.89586 
1 1.72297 9.11104 -7.16004 
2 1.7046 12.49 -7.13692 
1 5.38693 8.73777 -10.607 
1 5.21647 10.7828 -8.77673 
1 7.2648 10.6292 -7.32518 
1 6.94988 8.8346 -8.89416 
1 5.27924 8.99146 -7.1516 
1 8.95259 8.8544 -7.24462 
1 -1.93359 12.4907 -7.05045 
2 -14.0419 3.4655 -3.14629 
2 -12.6824 3.51042 -5.3092 
1 -14.2986 0.128547 -3.53511 
1 -12.4674 1.85242 -3.44435 
2 -10.8506 1.85815 -5.33498 
1 -10.7724 3.73952 -3.52224 
1 -8.98971 3.73469 -5.34658 
2 -9.04803 1.82286 -3.45184 
1 -7.15454 1.86172 -5.34949 
2 -7.18408 3.6886 -3.55815 
1 -5.36763 3.57351 -5.21976 
1 -5.3778 1.86083 -3.4361 
1 1.7373 3.47965 12.3609 
1 -3.5543 1.69248 -5.12142 
1 -1.74805 3.6279 -5.23418 
1 -3.60626 3.67491 -3.55013 
1 -1.77417 1.81056 -3.56026 
1 0.0322588 3.46566 -3.5661 
1 -0.0448145 1.72323 -5.31685 
1 3.67177 1.90795 -5.34832 
2 1.73573 3.50603 -5.45372 
1 3.50733 3.62762 -3.62631 
2 1.85036 1.6887 -3.56774 
1 7.10837 1.90934 -5.44901 
1 7.05885 3.48167 -3.57439 
1 5.26715 3.67481 -5.36707 
1 5.24314 1.73008 -3.59493 
1 3.48464 1.67322 12.5394 
1 10.6841 1.79626 -5.30311 
1 10.7134 3.58604 -3.49239 
2 8.89699 3.55861 -5.2865 
1 8.85398 1.7773 -3.50672 
1 12.4825 3.72752 -5.2371 
1 12.4917 1.72307 -3.52441 
1 8.92072 0.172351 -5.29298 
1 10.6384 0.0870265 -3.67367 
1 3.22085 3.44945 14.1646 
1 14.2835 3.53501 -3.50761 
1 -12.5693 5.33538 -3.25343 
1 -11.0169 7.09858 -3.38671 
1 -10.9915 5.40205 -5.20746 
2 -8.99285 7.16958 -5.30397 
1 -9.00211 5.36759 -3.44912 
1 -7.14803 7.23012 -3.55331 
1 -7.30499 5.47265 -5.28502 
1 -5.37648 7.18608 -5.28752 
1 -5.42712 5.40628 -3.66843 
1 -1.80531 7.21735 -5.31646 
1 -3.57132 7.13932 -3.6137 
1 -3.54827 5.42367 -5.20736 
1 -1.76508 5.46944 -3.53032 
1 -0.0167678 5.34821 -5.40156 
2 0.0255931 7.24698 -3.54585 
1 1.62711 7.2457 -5.34504 
2 3.51227 7.17106 -3.64896 
1 3.54834 5.40515 -5.45066 
1 1.70192 5.41187 -3.65639 
1 7.13007 7.14739 -3.74899 
1 7.02571 5.28165 -5.30233 
2 5.37348 7.2018 -5.53772 
1 5.34475 5.3669 -3.58006 
1 10.5974 7.14157 -3.53066 
1 10.6578 5.44746 -5.16215 
1 8.84852 7.06982 -5.36428 
1 8.9144 5.31051 -3.56582 
2 12.4949 5.354 -3.43334 
1 -10.914 8.86526 -5.1123 
1 -8.86345 10.6086 -5.25163 
1 -8.99945 8.81688 -3.52267 
1 -10.6682 10.6448 -3.67631 
1 -7.22833 10.7322 -3.51531 
1 -5.41678 10.9164 -5.30249 
1 -7.10009 8.96293 -5.18294 
1 -5.39167 9.11435 -3.60906 
1 -1.8085 10.7788 -5.37767 
1 -3.55043 10.8266 -3.49388 
2 -3.63198 9.00841 -5.29628 
1 -1.90781 8.95905 -3.52404 
1 -0.112052 9.01185 -5.21154 
1 -1.79098 12.5523 -3.41222 
1 -0.106713 10.8432 -3.53167 
2 1.68774 10.8433 -5.14915 
1 3.67234 10.7889 -3.6905 
1 3.55217 8.95027 -5.36794 
1 1.91512 9.09938 -3.46731 
1 1.81966 12.5494 -3.35486 
1 7.20557 10.9379 -3.60821 
2 5.45223 10.9171 -5.49942 
1 7.07601 8.937 -5.56184 
2 5.38018 9.08993 -3.6613 
1 10.6168 8.73713 -5.49114 
1 8.767 10.5454 -5.40003 
1 8.84046 8.92357 -3.67676 
1 -5.44603 12.6285 -3.47878 
1 -0.246822 12.4732 -5.40399 
1 -3.63221 12.5213 -5.17666 
1 -3.59185 14.2266 -3.37773 
1 -0.0751207 14.2136 -3.40244 
1 3.60721 12.8045 -5.42821 
2 1.5401 14.1464 -5.18938 
1 3.47579 14.3379 -3.48369 
1 5.14719 12.677 -3.51418 
1 -14.2771 3.45786 0.00279782 
1 -14.3576 1.66452 -1.65502 
1 -14.1996 1.8055 1.92918 
1 -12.4983 1.7524 -0.0606402 
2 -12.5301 3.59651 1.78241 
1 -12.5049 0.0340318 -1.80862 
1 -12.3208 3.51089 -1.54576 
2 -10.5848 3.61408 0.0891607 
1 -10.8001 1.72997 -1.72004 
1 -10.7398 1.95569 2.03292 
1 -8.91668 3.62217 -1.73886 
1 -8.87787 3.81506 1.91017 
1 -8.95139 1.81998 0.0332669 
1 -8.95908 0.0462036 -1.68127 
2 -9.06143 0.124028 1.78666 
1 -7.00425 3.65123 -0.00936238 
1 -7.20157 1.78245 -1.66773 
1 -7.34684 1.97587 1.75785 
1 -5.3547 3.66359 -1.86045 
1 -5.37679 3.60611 1.75276 
1 -5.49261 1.76738 0.00531525 
1 -5.38057 -0.0208436 -1.83361 
1 3.58777 -0.0641816 -3.58028 
2 -3.72044 3.44638 -0.0632017 
1 -3.61028 1.82605 -1.75271 
2 -1.74925 3.54977 -1.78796 
1 -3.58855 1.80694 1.81893 
1 -1.82915 3.58811 1.78234 
1 -1.82327 1.75886 -0.00161768 
1 -0.0377152 1.67672 -1.76488 
1 0.0488024 1.86477 1.72976 
1 -3.58778 0.187428 -0.0533362 
1 -1.80494 -0.0311226 -5.25348 
1 1.79095 1.46211 14.2561 
1 -0.053327 3.63065 0.127418 
2 3.6022 3.57047 -0.0780112 
1 3.67372 1.70814 -1.82185 
2 1.71245 3.75581 -1.83035 
1 3.55634 1.77574 1.87191 
1 1.7739 3.66974 1.78077 
2 1.78264 1.87351 -0.0501897 
1 -1.66603 1.70545 14.2036 
1 7.10125 3.62789 -0.050312 
1 7.06358 1.78819 -1.7737 
1 7.15116 1.8056 1.73915 
1 5.27136 3.54878 -1.92228 
1 5.44405 3.51028 1.81448 
2 5.42664 1.80522 -0.0568003 
2 -7.16767 0.0750062 -3.49411 
1 5.31638 -0.126597 -1.93062 
1 3.435 -0.07925 -10.6537 
2 -1.60738 3.66169 12.5607 
1 10.7368 3.57193 -0.0456185 
1 10.7157 1.88277 1.70671 
2 10.6916 1.79961 -1.82574 
1 8.86489 3.52222 -1.76434 
1 8.92718 3.55166 1.78328 
1 8.83344 1.75737 -0.0446478 
1 12.4029 3.51381 -1.74681 
1 12.6362 3.66544 1.76757 
1 12.4903 1.78528 -0.00747369 
1 -1.84951 -0.0234382 -8.9375 
2 -3.60437 1.66658 12.5263 
1 14.1894 3.73191 -0.170568 
2 14.2045 1.66054 -1.72266 
1 14.3404 1.90205 1.57761 
1 14.23 -0.0102176 0.318397 
1 -12.5805 5.40787 0.020244 
1 -12.2089 7.18904 1.77739 
1 -12.5025 7.1662 -1.57134 
1 -10.6409 6.96774 -0.0321617 
1 -10.752 5.32233 -1.72356 
1 -10.6648 5.4506 1.90801 
1 -8.85105 7.15355 -1.73737 
2 -8.85868 7.06045 1.65845 
1 -8.85465 5.32685 -0.0884593 
1 -7.1142 7.20659 -0.0757635 
1 -7.21586 5.38879 -1.72179 
2 -5.37035 7.1789 -1.83995 
1 -7.10346 5.39956 1.63614 
1 -5.31893 7.287 1.71078 
1 -5.39016 5.4763 -0.0610254 
1 -3.70375 7.28979 -0.0936144 
1 -1.82002 7.28692 -1.73815 
1 -1.83193 7.0401 1.72639 
1 -3.49005 5.38266 -1.81427 
1 -3.6583 5.30419 1.7469 
2 -1.89662 5.39331 0.0240456 
1 0.0257703 5.5271 -1.73153 
1 0.00038223 7.17117 -0.0612408 
1 -0.0222051 5.43291 1.75389 
1 3.64987 7.10681 -0.0321093 
1 1.82348 7.14825 -1.78959 
2 1.92083 7.18938 1.7471 
1 3.5719 5.42621 -1.85396 
2 3.69577 5.32716 1.74611 
1 1.8405 5.41486 -0.00926942 
1 7.16427 6.95499 0.0342404 
1 7.12843 5.223 -1.92252 
2 5.41581 7.08235 -1.80725 
1 7.17268 5.29959 1.7238 
1 5.37861 7.08301 1.83535 
1 5.38208 5.21334 -0.00588081 
1 10.5981 6.9283 -0.132541 
1 10.6892 5.20571 1.77202 
1 10.6546 5.31702 -1.79263 
1 8.80919 7.05288 -1.88692 
2 9.11538 7.04732 1.77651 
1 8.89192 5.31141 -0.153792 
2 12.0697 7.24073 1.67796 
1 12.2652 7.14115 -1.67972 
1 12.5177 5.41661 -0.0742801 
2 -9.0458 10.725 -1.79217 
1 -8.84768 10.7872 1.688 
2 -10.7218 8.89953 -1.7782 
1 -10.5992 9.00929 1.62003 
1 -8.90495 8.86011 -0.0489974 
1 -7.28157 10.7457 -0.095257 
1 -5.44216 10.7801 1.84904 
1 -5.4314 10.6612 -1.88105 
1 -7.10208 9.02274 -1.8056 
1 -7.13548 9.12541 1.73222 
1 -5.46426 9.0721 -0.114781 
2 -5.41719 12.5211 0.0448901 
1 -3.59396 10.7024 0.0122209 
2 -1.68626 10.8015 1.74108 
1 -1.80844 10.7894 -1.82442 
1 -3.56302 9.09843 -1.78391 
2 -3.61638 8.95 1.81281 
1 -1.75178 9.04685 0.0284835 
1 0.0303735 10.8277 0.0395588 
2 0.029802 9.09596 -1.66158 
1 -3.56465 12.3742 -1.7089 
1 0.0629756 8.77096 1.84862 
1 -1.78328 12.5472 -0.0418826 
2 -3.56477 12.4429 1.79784 
1 -0.0190282 12.4494 -1.66083 
1 3.69158 10.6639 0.133885 
1 1.8843 10.7157 1.75691 
1 1.91814 10.6989 -1.70537 
1 3.54238 9.01473 -1.69371 
1 3.69637 8.95441 1.87194 
1 1.9808 9.02299 0.046931 
2 1.79678 12.4504 0.141059 
1 0.0973371 12.5176 1.96006 
2 3.58765 12.4339 -1.6289 
1 7.27295 10.564 0.0333331 
1 5.53434 10.5555 1.78083 
2 5.58151 10.8521 -1.72754 
1 7.13275 8.79626 -1.87126 
1 7.20137 8.68372 1.81896 
2 5.4089 8.89151 0.00399849 
2 7.31157 12.2221 1.63422 
1 5.50998 12.5644 0.141037 
1 10.5604 8.92945 -1.75786 
2 10.9505 9.20252 0.66899 