ITEM: TIMESTEP
1800000
ITEM: NUMBER OF ATOMS
1289
ITEM: BOX BOUNDS pp pp pp
-100 100
-100 100
-100 100
ITEM: ATOMS type x y z 
1 -1.96267 -6.99358 -12.4869 
1 -3.67903 -5.21662 -12.2753 
1 -0.0356125 -5.38875 -12.3983 
1 1.7393 -7.01675 -12.2105 
1 3.46461 -5.38196 -12.491 
1 -7.20007 -1.71759 -12.0909 
2 -5.4105 -3.47748 -12.2041 
1 -5.41224 0.0152555 -12.4655 
2 -1.87016 -1.83389 -14.0006 
2 -3.61724 -1.75657 -12.2002 
1 -1.8103 -3.5799 -12.1448 
1 -0.0829097 -1.80368 -12.2793 
2 -1.74543 -0.0435733 -12.3009 
2 -0.153415 0.00668028 -14.5117 
1 -3.6471 0.0688314 -14.1956 
1 0.06162 -3.47527 -14.0698 
2 3.39829 -3.30393 -14.1398 
1 1.79241 -3.5368 -12.4447 
1 3.43869 -1.68166 -12.3555 
1 1.67546 -1.67405 -14.0656 
2 3.52579 0.112314 -14.2825 
1 5.35073 -1.71809 -14.3113 
2 7.12561 -1.64383 -12.4547 
2 5.19638 -3.42393 -12.5143 
2 5.26383 -0.00771863 -12.4044 
1 -1.57439 -12.6835 -7.03572 
1 -8.95765 -8.84544 -6.90556 
2 -5.42314 -10.5194 -8.68199 
1 -5.51911 -8.95634 -10.7963 
1 -7.23138 -8.98252 -8.95149 
1 -5.45016 -8.95959 -6.86092 
1 -7.33851 -10.5529 -6.99111 
1 -2.02788 -10.8821 -8.91103 
1 -1.91967 -8.91685 -10.858 
1 -3.68797 -10.8347 -6.95729 
2 -3.60755 -8.8872 -8.85575 
1 -1.76247 -9.12064 -7.20025 
1 0.0331476 -8.92191 -8.95864 
1 -0.154831 -10.5549 -10.558 
2 -0.0464895 -10.7205 -7.20032 
1 1.64679 -12.4711 -7.08601 
1 1.89347 -8.96324 -10.5805 
2 1.79703 -10.699 -8.95061 
1 3.51414 -10.7199 -7.07989 
2 3.54297 -8.94795 -8.79206 
1 1.79403 -8.99868 -7.07163 
1 5.35838 -10.7721 -8.72241 
1 7.12713 -8.89577 -8.89777 
1 5.44052 -8.7874 -6.98489 
1 7.08733 -10.6661 -7.02996 
1 5.30397 -9.08854 -10.5185 
1 8.82953 -8.9694 -7.25885 
1 -11.0063 -5.28375 -8.67063 
1 -9.05032 -5.31774 -10.3191 
1 -9.02188 -7.20488 -8.67572 
2 -9.10007 -5.16599 -6.96414 
2 -10.8337 -7.08851 -6.87252 
1 -7.16503 -7.06231 -10.5824 
1 -5.47849 -5.47441 -10.5326 
1 -7.16871 -5.36711 -8.75565 
1 -5.49443 -7.2037 -8.79421 
2 -7.17428 -7.1004 -7.04834 
1 -5.35189 -5.39624 -6.98683 
2 -3.8036 -7.20502 -10.802 
1 -1.98629 -5.31121 -10.5601 
1 -1.87455 -7.11052 -8.92084 
1 -3.73754 -5.42405 -8.86556 
1 -3.66043 -7.40488 -7.0458 
2 -2.09564 -5.41386 -7.08443 
2 -0.0504582 -7.40601 -7.18605 
1 -0.190457 -7.19707 -10.6646 
2 -0.173034 -5.36689 -8.91451 
2 3.72579 -7.21692 -10.7176 
1 1.68931 -5.23971 -10.5542 
1 1.79182 -7.06744 -8.94943 
1 3.59695 -5.38587 -9.00881 
1 3.67481 -7.0898 -7.07988 
2 1.77887 -5.29893 -7.18405 
1 7.01756 -7.14441 -10.79 
1 5.33815 -5.39222 -10.6708 
1 5.51061 -7.08945 -8.8395 
1 7.0646 -5.42385 -8.87451 
1 7.17249 -7.13273 -7.06156 
1 5.34117 -5.39736 -7.18486 
1 8.75316 -5.07066 -10.5767 
1 10.634 -5.27942 -8.94071 
1 10.5064 -7.21402 -7.36027 
2 8.94731 -7.20283 -9.13122 
1 8.84478 -5.3833 -7.21904 
1 -12.616 -1.68537 -6.86344 
1 -10.7215 -1.81543 -8.84262 
1 -9.02673 -1.83881 -10.6106 
1 -10.9376 -3.4438 -6.98889 
1 -9.06281 -3.54153 -8.73043 
1 -8.98159 -1.75353 -7.00565 
1 -11.0365 -0.0508 -7.06607 
1 -9.09202 -0.118759 -8.6865 
1 -7.24457 -3.7121 -10.5011 
1 -5.45948 -1.73553 -10.4317 
1 -7.29528 -1.85393 -8.77607 
1 -5.43943 -3.55016 -8.75973 
1 -7.1751 -3.57826 -7.07906 
1 -5.38262 -1.72148 -7.1052 
1 -7.20519 -0.0342874 -7.03664 
1 -5.38221 0.0643968 -8.83923 
1 -3.80718 -3.61821 -10.4509 
1 -1.87756 -1.77638 -10.5169 
1 -3.6784 -1.67382 -8.74678 
2 -1.96323 -3.55423 -8.71531 
1 -3.81567 -3.49184 -7.04246 
1 -2.15519 -1.70472 -6.98087 
1 -0.131092 -1.7164 -8.79731 
1 -0.275191 -3.41353 -7.01368 
1 -0.0764711 0.0734066 -10.6138 
1 -3.62049 0.0372382 -10.5244 
1 -0.223284 0.0273888 -7.1523 
1 0.0954408 -3.45329 -10.4826 
1 3.46575 -3.55235 -10.6818 
1 1.72887 -1.71842 -10.5958 
1 1.77118 -3.57201 -8.78108 
2 3.56257 -1.82086 -9.01558 
1 3.73944 -3.54454 -7.07719 
1 1.67409 -1.70478 -7.16491 
2 1.74337 0.224271 -8.87953 
1 3.58532 0.00457022 -7.10757 
1 6.95513 -3.57411 -10.7038 
1 5.43974 -1.78376 -10.61 
1 7.18107 -1.85902 -8.88805 
1 5.33872 -3.63102 -8.92861 
1 7.08612 -3.57705 -7.13381 
1 5.35739 -1.85222 -7.05653 
1 8.81283 -2.01506 -10.6956 
1 10.6794 -3.58588 -7.13382 
1 8.83993 -3.64182 -8.77278 
2 8.92169 -1.92305 -6.99933 
2 10.6714 -2.11093 -9.14662 
1 12.5042 -1.87565 -7.26927 
1 -5.25469 -12.5874 -3.41763 
1 -1.58725 -14.153 -4.85299 
1 -3.47449 -12.556 -5.1337 
1 -1.6955 -12.4478 -3.36842 
2 0.272208 -14.3255 -3.11617 
1 5.10224 -12.6832 -3.59927 
1 -10.7777 -9.02077 -5.24047 
1 -8.95942 -10.7009 -5.18201 
2 -9.02815 -9.05803 -3.33369 
1 -7.20659 -11.0222 -3.48712 
1 -5.42371 -10.8371 -5.21133 
1 -7.176 -8.97781 -5.19013 
1 -5.41217 -9.09235 -3.57353 
2 -1.73014 -10.8097 -5.40206 
1 -3.58945 -10.8598 -3.44182 
1 -3.60617 -9.10834 -5.33437 
2 -1.83813 -8.85697 -3.48209 
1 0.0422044 -8.93205 -5.1865 
1 0.147907 -12.6038 -5.21634 
1 3.6932 -12.448 -5.46675 
2 2.07838 -12.6272 -3.55199 
2 0.245866 -10.7632 -3.47791 
1 1.92187 -10.7564 -5.33754 
1 3.53267 -10.6324 -3.51067 
1 3.48785 -8.91475 -5.32287 
1 1.71062 -8.90996 -3.59094 
2 7.01078 -10.9426 -3.7603 
1 5.20109 -10.6469 -5.46273 
1 7.11536 -8.86397 -5.34888 
2 5.28162 -8.8878 -3.56949 
1 8.92548 -10.6838 -5.26606 
2 9.04343 -8.87566 -3.66164 
1 10.7032 -8.98422 -5.63357 
1 8.87738 -10.9799 -2.10936 
1 -12.6627 -5.28173 -3.40188 
1 -10.768 -7.08171 -3.55962 
1 -10.945 -5.34755 -5.22666 
2 -8.87847 -7.18995 -5.07134 
1 -8.91206 -5.26161 -3.41551 
1 -7.07074 -7.10583 -3.36685 
1 -7.2196 -5.31956 -5.1932 
1 -5.33423 -7.20587 -5.17854 
1 -5.28673 -5.32257 -3.48292 
1 -1.86365 -7.31323 -5.36068 
1 -3.65943 -7.18983 -3.58387 
1 -3.66967 -5.26631 -5.25883 
1 -1.83155 -5.41637 -3.65888 
1 -0.126991 -7.0768 -3.5753 
2 -0.0637217 -5.28548 -5.29386 
2 1.74692 -7.12537 -5.36847 
1 3.49055 -7.20318 -3.53196 
1 3.48215 -5.269 -5.33424 
1 1.68086 -5.26893 -3.59395 
1 7.2479 -7.10269 -3.57415 
1 5.29056 -7.00985 -5.34462 
1 7.10132 -5.37753 -5.48565 
1 5.37788 -5.33214 -3.58366 
1 10.8281 -7.21858 -3.84045 
1 10.8337 -5.48092 -5.51725 
2 8.95831 -7.11259 -5.45426 
2 8.99329 -5.37265 -3.69031 
1 12.6066 -5.31274 -3.48352 
1 -14.2547 -3.31172 -3.62549 
1 -12.7556 -3.53994 -5.38712 
2 -12.6065 -1.6383 -3.58985 
1 -10.7455 -1.69665 -5.23972 
2 -10.8277 -3.51809 -3.40909 
1 -8.98675 -3.57247 -5.232 
2 -9.12004 -1.76926 -3.31145 
2 -9.06214 0.0976297 -5.29788 
2 -7.10646 -1.83565 -5.21553 
1 -7.19183 -3.6735 -3.42616 
1 -5.46577 -3.64477 -5.27418 
1 -5.35198 -1.85729 -3.43133 
1 -3.68513 -1.7896 -5.20916 
1 -1.92308 -3.42362 -5.28951 
1 -3.62191 -3.57805 -3.48764 
1 -1.76645 -1.75491 -3.53351 
1 -0.153513 -1.60891 -5.35725 
1 -0.0763703 -3.46648 -3.58474 
1 -3.58967 0.0545526 -3.44351 
1 -2.03652 0.01701 -5.17591 
1 1.77154 -3.58143 -5.46826 
1 3.55475 -1.786 -5.4154 
1 3.62421 -3.62841 -3.64655 
2 1.73616 -1.77027 -3.72095 
1 1.64253 0.0179062 -5.44829 
1 5.33739 0.0149965 -5.35703 
1 7.05316 -1.7497 -5.29783 
1 7.00139 -3.5436 -3.53 
1 5.39858 -3.5862 -5.35218 
1 5.23535 -1.80964 -3.64904 
1 10.7068 -1.85875 -5.26603 
1 10.6835 -3.57587 -3.66774 
1 8.92469 -3.61309 -5.29829 
1 8.83321 -1.70794 -3.54599 
1 12.4688 -1.7499 -3.51035 
2 12.5048 -3.59666 -5.47671 
2 14.1153 -3.42212 -3.43422 
1 -1.71977 -14.2743 -1.6042 
1 -3.48508 -14.3634 0.429587 
1 -1.17962 -14.5789 1.23171 
1 -3.45872 -12.6616 -1.64839 
1 0.403617 -14.601 -0.470072 
1 2.39837 -14.2105 -1.70259 
1 3.72203 -14.2267 0.402647 
2 1.54994 -14.2943 1.79728 
1 5.01411 -14.1601 -1.73525 
1 -10.7187 -10.9049 0.0704411 
1 -10.8566 -9.1067 -1.59096 
1 -8.89029 -10.937 -1.67342 
1 -8.83742 -8.96768 -0.0735422 
2 -10.7376 -9.1044 1.95057 
2 -8.91565 -10.812 1.56953 
1 -5.26433 -12.7113 0.13875 
2 -7.03969 -12.5562 1.85576 
2 -7.17912 -12.5568 -1.46447 
1 -7.15959 -10.5745 -0.019078 
2 -5.2845 -10.9231 -1.67248 
2 -5.32475 -10.5325 1.7386 
1 -7.14153 -8.96345 -1.79095 
1 -7.06876 -8.84613 1.65064 
1 -5.35508 -8.87426 -0.0960072 
1 -3.48656 -12.3292 1.69052 
1 -1.69368 -12.4895 0.0886956 
1 -3.50384 -10.6563 0.041971 
1 -1.8282 -10.7354 -1.73202 
1 -1.66614 -10.5299 1.73338 
1 -3.59059 -8.9624 -1.7152 
1 -3.46836 -8.77805 1.667 
1 -1.75234 -8.87531 -0.0319603 
1 -0.0177223 -12.4657 1.68568 
1 0.10848 -8.91255 1.7236 
2 0.0110373 -12.4652 -1.58856 
1 -0.0208932 -10.6338 -0.0060261 
2 1.90998 -12.4201 0.209547 
1 -0.074628 -8.8692 -1.69171 
1 3.68928 -12.2167 1.70563 
1 3.64827 -12.2557 -1.72577 
1 3.6414 -10.5109 -0.0272521 
1 1.82092 -10.6678 -1.67719 
1 1.83424 -10.5369 1.78123 
1 3.65248 -8.98033 -1.72635 
1 3.48755 -8.79738 1.81886 
1 1.75758 -8.87451 -0.00600743 
1 5.31096 -12.3938 -0.0667413 
1 7.10668 -12.4139 1.67783 
2 7.05179 -12.507 -1.65898 
1 7.07284 -10.5143 -0.0790344 
1 5.39788 -10.7045 -1.79563 
1 5.36155 -10.5628 1.71339 
1 7.22591 -9.02096 -1.93787 
2 7.22464 -8.76804 1.62297 
1 5.38552 -8.88261 -0.0669619 
1 8.89965 -11.9897 -0.0433608 
1 10.7112 -9.12276 -2.01565 
1 10.7726 -8.89332 1.89428 
2 8.99004 -9.16741 -0.135516 
1 9.05221 -10.7729 1.83082 
1 -12.5705 -7.07533 -1.80031 
1 -12.3913 -5.33151 0.000713267 
2 -10.7474 -7.22742 0.0491986 
1 -10.754 -5.34698 -1.86597 
1 -10.6733 -5.57074 1.78661 
1 -9.06825 -7.10442 -1.83266 
1 -8.91463 -7.29561 1.72989 
1 -9.01861 -5.39469 -0.168598 
1 -7.19392 -7.10983 -0.108902 
1 -7.23506 -5.38625 -1.73275 
1 -5.37954 -7.0966 -1.82644 
2 -7.2887 -5.39655 1.67654 
1 -5.3091 -7.17329 1.73802 
1 -5.29508 -5.45232 -0.00994151 
1 -3.60652 -7.12267 -0.0678911 
1 -1.88607 -7.12239 -1.74891 
1 -1.68575 -7.15743 1.64003 
1 -3.63146 -5.42921 -1.80664 
1 -3.5651 -5.41255 1.78093 
2 -1.81001 -5.50203 -0.0695628 
1 -0.0243733 -5.35816 -1.88057 
1 0.00770329 -7.06267 -0.0379467 
1 -0.00360818 -5.37719 1.72335 
1 3.655 -7.18171 -0.0500104 
2 1.77949 -7.15401 -1.74298 
1 1.7412 -7.03413 1.70376 
2 3.62623 -5.31537 -1.89932 
1 3.48414 -5.241 1.75926 
1 1.74672 -5.40719 -0.0642068 
1 7.17062 -7.16272 -0.211035 
1 5.46889 -7.15909 -1.85636 
1 7.06201 -5.38458 -1.90443 
1 5.31052 -7.01017 1.70556 
2 7.25599 -5.2951 1.7223 
1 5.28206 -5.39208 -0.03151 
1 10.7795 -7.28675 0.0619571 
1 10.6553 -5.29679 1.69207 
1 10.7431 -5.41376 -1.81186 
1 9.05147 -7.16558 -1.81567 
1 8.99487 -6.96202 1.63602 
1 9.00875 -5.36474 -0.0949251 
1 12.2754 -7.22836 -1.88354 
2 12.536 -5.33907 -0.0372672 
1 12.3793 -7.24978 1.67075 
1 -14.214 -3.46387 -0.00160766 
2 -14.2909 -1.57249 -1.73941 
1 -14.2582 -1.752 1.65236 
1 -12.6312 -3.3818 -1.62769 
1 -12.5413 -1.6428 -0.008548 
1 -12.4371 -3.54581 1.71368 
1 -10.7252 -3.59196 -0.0282195 
1 -10.911 -1.6295 -1.81481 
1 -10.822 -1.70624 1.76167 
1 -8.96261 -3.62026 -1.68052 
2 -9.09429 -3.55827 1.7426 
1 -9.03414 -1.77298 -0.00569972 
2 -8.98886 0.092283 1.71882 
1 -7.20879 -3.63473 -0.0632692 
1 -7.15149 -1.78398 -1.7413 
1 -7.22325 -1.75775 1.65388 
1 -5.46576 -3.67925 -1.74102 
2 -5.38462 -3.4858 1.65752 
2 -5.32139 -1.67245 -0.197241 
1 -3.6287 -3.58256 -0.0864356 
1 -3.5441 -1.76953 -1.86277 
2 -1.84954 -3.68957 -1.84911 
2 -3.43503 -1.72668 1.70312 
1 -1.76493 -3.59303 1.80476 
1 -1.864 -1.84793 -0.149824 
1 -0.0871328 -1.68001 -1.79942 
1 -0.166655 -1.84784 1.82892 
1 -0.0313764 -3.51791 -0.0548375 
1 -1.90552 0.0780984 -1.69446 
1 -0.0985619 -0.0223652 -0.0650909 
2 3.54809 -3.57743 0.0311286 
2 1.6785 -3.53083 -1.7407 
1 3.52435 -1.74277 -1.87657 
1 1.63768 -3.59608 1.69681 
1 3.49868 -1.87112 1.80678 
1 1.75059 -1.74178 -0.0789372 
2 1.59214 -0.0138236 1.77355 
1 7.23388 -3.72398 -0.174669 
1 7.19757 -1.75798 -1.8635 
1 7.10551 -1.81001 1.84399 
1 5.3783 -3.50673 -1.80762 
1 5.50059 -3.53952 1.71204 
2 5.49563 -1.97255 -0.0321033 
1 10.7008 -3.53695 -0.167603 
1 10.7049 -1.71983 1.69475 
1 10.6337 -1.77446 -1.89637 
1 8.84923 -3.60254 -2.00067 
1 8.98623 -3.56417 1.76509 
2 8.92287 -1.98071 -0.0773377 
1 12.3339 -3.53417 -1.84216 
1 12.4874 -1.78642 0.0386261 
2 12.5396 -3.64061 1.6252 
2 14.215 -3.55538 -0.316024 
1 14.4158 -1.57909 -1.65808 
1 14.5001 -1.91341 1.57884 
2 -5.16654 -12.4932 3.55569 
2 -3.18914 -14.1273 3.15654 
1 -0.272365 -14.3065 3.3771 
1 3.51171 -14.0427 3.34121 
1 -10.3959 -10.8761 3.52011 
1 -10.6664 -9.12823 5.19861 
2 -8.75678 -8.94696 3.46253 
2 -8.62287 -10.8286 5.29034 
1 -6.99426 -10.7706 3.54257 
1 -5.32795 -10.7942 5.24808 
1 -6.99895 -9.02534 5.31096 
2 -5.25456 -8.80164 3.62384 
2 -3.26107 -12.4084 5.27936 
1 -1.6409 -12.3353 3.4214 
1 -1.62306 -10.5755 5.18035 
1 -3.52465 -10.5755 3.53892 
2 -3.34785 -8.91307 5.43666 
1 -1.71137 -8.77119 3.56445 
2 0.166796 -12.5395 5.14354 
1 0.0136447 -8.7618 5.26661 
1 0.0862144 -10.6271 3.47588 
1 3.4843 -12.4255 5.39404 
1 1.8028 -12.3891 3.42157 
1 1.72265 -10.5905 5.18326 
2 3.50755 -10.662 3.58146 
1 3.613 -8.87264 5.33326 
1 1.66738 -8.76401 3.5217 
1 5.316 -12.4997 3.46656 
1 7.16433 -10.553 3.40789 
1 5.41843 -10.716 5.28323 
2 7.24872 -8.64652 5.40508 
2 5.40043 -8.78904 3.516 
1 8.86097 -10.5112 5.21324 
2 9.02516 -8.70815 3.51387 
1 -12.5305 -5.33638 3.55076 
1 -10.7611 -7.23386 3.66258 
1 -10.6114 -5.45196 5.32069 
1 -8.78826 -7.31343 5.23028 
1 -8.9058 -5.5568 3.57628 
1 -7.118 -7.17361 3.55975 
1 -7.06749 -5.55801 5.39125 
1 -5.1892 -7.17905 5.44737 
2 -5.32601 -5.40301 3.59682 
1 -1.84436 -6.97259 5.42344 
1 -3.54202 -7.11815 3.46727 
1 -3.54007 -5.43249 5.32448 
2 -1.76518 -5.37513 3.506 
2 0.0686018 -5.473 5.30524 
1 -0.0237986 -7.06697 3.50234 
1 1.96448 -7.12353 5.38785 
1 3.55126 -7.00126 3.45175 
1 3.5365 -5.34463 5.25994 
1 1.71643 -5.44483 3.47373 
1 7.1328 -6.97035 3.47283 
1 5.31839 -7.10631 5.36711 
2 7.1145 -5.36399 5.43917 
2 5.36667 -5.28916 3.423 
2 10.7511 -8.73317 5.4496 
1 10.7441 -6.91735 3.53978 
1 10.8023 -5.39892 5.31353 
1 9.02348 -7.01216 5.2522 
1 8.97017 -5.34164 3.43795 
2 12.6143 -5.40769 3.44712 
1 -14.0998 -3.32141 3.50015 
1 -12.3979 -3.50043 5.30249 
1 -12.5447 -1.71495 3.57837 
1 -10.6386 -1.70543 5.20972 
1 -10.7552 -3.74016 3.61464 
1 -8.79139 -3.62399 5.29425 
2 -9.05783 -1.78157 3.4978 
1 -7.22161 -1.73355 5.44204 
2 -7.21568 -3.65347 3.60099 
1 -5.41968 -3.53804 5.4813 
1 -5.44181 -1.86828 3.6188 
1 -7.21676 -0.0216016 3.5364 
2 -3.69436 -1.73498 5.21429 
2 -1.78718 -3.46713 5.4095 
1 -3.53922 -3.63461 3.40899 
1 -1.76054 -1.66075 3.6213 
1 0.000627218 -0.0149882 3.54994 
1 -1.68366 0.112827 5.36104 
1 0.0409954 -1.64517 5.3443 
1 3.63033 -0.101468 3.4613 
1 0.0890836 -3.56684 3.61229 
1 1.75648 -3.55982 5.26708 
1 3.5182 -1.7493 5.30933 
1 3.56887 -3.44117 3.52654 
1 1.77915 -1.84373 3.64512 
1 7.17089 -1.7723 5.36589 
1 7.1801 -3.44741 3.45412 
1 5.45797 -3.43263 5.35018 
1 5.31699 -1.84071 3.62606 
1 5.29903 0.0847974 5.33946 
2 10.7325 -1.6131 5.27773 
1 10.7463 -3.56082 3.64903 
2 8.88375 -3.61442 5.33248 
1 8.88171 -1.72025 3.46306 
2 12.5308 -1.82235 3.4653 
1 12.7197 -3.78401 5.25295 
1 14.3531 -3.68428 3.40892 
1 14.4811 -1.81306 5.03149 
2 14.2449 -0.0387422 3.11653 
1 -8.96587 -9.04018 6.98982 
1 -5.16235 -9.11189 10.4793 
1 -5.26704 -10.7825 8.72677 
1 -6.98906 -10.8351 7.00077 
2 -7.11265 -8.98925 8.89394 
1 -5.28071 -9.07533 7.04963 
1 -1.41694 -12.3392 6.99122 
2 -1.79954 -8.90267 10.5246 
1 -1.56408 -10.6935 8.80026 
1 -3.33079 -10.6823 7.03815 
1 -3.45115 -9.02681 8.71115 
1 -1.58558 -8.84423 7.25663 
1 0.126624 -8.88547 8.95142 
1 0.0463206 -10.4858 6.95024 
1 1.68919 -12.2996 6.94332 
1 1.78064 -10.7045 8.90316 
1 3.50927 -10.6203 7.09284 
1 3.55912 -8.80131 8.98451 
1 1.86519 -8.95997 7.01516 
1 1.80057 -8.87386 10.8963 
1 7.15725 -10.4453 7.08674 
1 5.31309 -8.90186 10.6555 
1 5.23855 -10.5127 8.79665 
1 7.14948 -8.82991 8.88391 
1 5.28428 -8.80887 7.042 
1 9.06825 -8.7972 7.2415 
2 -10.5486 -7.24038 6.86468 
1 -10.5796 -5.43618 8.83534 
1 -8.83272 -7.29814 8.67992 
1 -8.74993 -5.43619 7.09362 
1 -8.79322 -5.53671 10.3981 
1 -6.7695 -7.1868 10.6833 
1 -6.97628 -5.64919 8.82893 
1 -5.29857 -7.41061 8.73311 
1 -7.02261 -7.33682 7.10294 
1 -5.36724 -5.2366 7.15564 
1 -5.47369 -5.27883 10.8186 
2 -3.67553 -7.11465 10.739 
1 -1.73945 -5.42735 10.6752 
1 -1.73582 -7.13116 8.84694 
2 -3.72819 -5.35621 8.93071 
1 -3.60851 -7.10531 7.18336 
1 -1.85292 -5.37771 7.13776 
1 -0.0539538 -7.10543 10.6529 
2 0.102657 -5.37721 8.8548 
1 0.171504 -7.21516 7.1395 
1 3.64223 -7.0105 10.8666 
1 1.73293 -5.30902 10.651 
1 1.79299 -7.22041 9.05225 
1 3.46645 -5.39963 9.05546 
1 3.54614 -7.13149 7.13255 
2 1.96532 -5.33749 7.06515 
1 6.96652 -6.9008 10.446 
1 5.41591 -5.11705 10.5232 
1 5.19295 -7.18885 8.87898 
1 7.10331 -5.18527 8.76716 
1 7.11394 -7.14947 7.30494 
2 5.23641 -5.30137 7.16054 
1 8.67337 -5.04654 10.6058 
1 10.4728 -4.86595 9.00519 
1 10.7152 -6.97875 7.17333 
1 8.95689 -6.84234 9.02225 
1 9.00405 -5.38857 7.15965 
2 -12.0369 -1.79601 7.08548 
1 -8.96965 -1.81623 10.4188 
1 -10.8166 -2.9198 9.29161 
2 -10.547 -3.8421 7.09449 
1 -8.69533 -3.7702 8.83363 
2 -9.08024 -1.80943 7.19695 
1 -11.1604 -0.551435 9.24604 
1 -7.25451 -3.55237 10.7499 
1 -5.38111 -1.7808 10.8392 
1 -7.15536 -1.6658 8.95694 
2 -5.50436 -3.49142 8.91169 
1 -7.13472 -3.57508 7.04525 
1 -5.52427 -1.70945 7.15582 
1 -7.22468 0.0563928 10.5861 
1 -3.54106 -3.5358 10.7162 
1 -1.86918 -1.76079 10.6898 
1 -3.71509 -1.80701 8.97664 
2 -1.80757 -3.58334 8.85171 
1 -3.61168 -3.56321 6.97209 
1 -1.91132 -1.70675 7.14801 
2 0.0829029 -3.49211 7.08295 
1 0.00666503 -1.70636 8.86925 
1 -0.153183 -0.0746028 10.5992 
1 -0.0636702 -3.39116 10.6877 
1 1.82615 -1.66634 7.23711 
2 3.62862 -3.47847 7.11617 
1 1.73679 -1.83161 10.6668 
1 1.77751 -3.52398 9.02355 
1 3.56423 -1.76947 8.83651 
1 3.39958 -3.53382 10.5107 
1 3.51958 -0.0347839 7.10227 
1 7.18348 -0.00871169 7.04868 
1 7.10987 -3.37634 7.0952 
1 5.37174 -1.58469 7.08407 
1 5.11158 -1.81741 10.6058 
1 7.098 -3.37846 10.5102 
1 5.47169 -3.40504 8.91154 
1 7.19596 -1.64988 8.8231 
1 7.19085 -0.232643 10.6918 
1 8.76784 -3.37597 8.64929 
2 10.9181 -2.08814 8.6911 
1 10.8846 -3.64481 6.90611 
1 8.98018 -1.82893 7.10859 
1 9.08263 -1.89752 10.5593 
1 12.6172 0.0153316 8.80713 
2 9.11985 0.00247754 8.78577 
2 12.6985 -1.75794 6.73515 
1 -0.0679845 -8.63785 12.4143 
1 -1.82233 -6.93287 12.6191 
1 -0.0843214 -5.25784 12.2553 
1 -3.56189 -5.24745 12.6342 
1 1.83534 -5.06538 14.212 
1 3.5392 -5.06714 12.5297 
2 1.76636 -6.93534 12.4877 
1 -0.223096 -6.3263 14.205 
1 -5.56215 -0.0351273 12.4374 
1 -7.268 -1.63122 12.3958 
1 -5.33039 -3.48873 12.4627 
1 -0.16299 -1.71186 12.4684 
2 -0.0766112 -3.61955 13.9774 
1 -0.0911089 -0.00423267 14.1844 
1 -3.56953 -1.85464 12.4442 
1 -1.87238 -3.67537 12.3434 
1 -1.94909 -1.82477 14.2076 
1 3.42493 -1.89523 12.4259 
1 1.69006 -3.44725 12.4414 
1 1.65017 -1.82388 14.2398 
1 1.62239 -0.0652854 12.3227 
2 5.28938 -3.41434 12.1958 
1 7.20905 -1.801 12.377 
1 5.30661 -0.121759 12.5033 
1 -7.45713 1.88157 -12.2134 
1 -5.52938 3.63478 -12.4124 
2 -1.90461 1.80408 -14.373 
2 -3.63814 1.8379 -12.4106 
1 -1.8883 3.67445 -12.4642 
1 -0.135384 3.74002 -14.2139 
2 -0.152477 1.90038 -12.4066 
1 3.41302 3.51049 -14.2991 
1 3.65729 1.90933 -12.6001 
2 1.75219 3.63343 -12.5149 
1 1.70341 1.75506 -14.3265 
2 1.76011 0.11517 -12.4023 
1 5.42678 1.70414 -14.2922 
1 7.15797 1.75951 -12.4624 
1 5.48371 3.6179 -12.4898 
1 -1.77393 7.16109 -12.6479 
1 -3.58668 5.33644 -12.5719 
1 -0.0677265 5.42011 -12.477 
1 1.61814 7.16672 -12.5158 
1 3.58528 5.4848 -12.7222 
1 -12.5154 1.98904 -7.21937 
1 -11.1144 3.10271 -9.30532 
1 -9.30389 1.60316 -10.4526 
2 -8.99746 3.79171 -8.77554 
2 -9.32289 2.00428 -7.13815 
1 -11.038 4.08937 -7.07981 
1 -11.3588 0.730879 -9.14341 
1 -7.40998 3.68701 -10.7072 
2 -5.43807 1.70749 -10.701 
2 -7.29973 1.84212 -8.9113 
1 -5.54714 3.62887 -8.92215 
1 -7.22919 3.65948 -6.95109 
2 -5.41277 1.84279 -7.07619 
1 -7.36955 -0.0695525 -10.4898 
1 -3.61196 3.74817 -10.7091 
1 -1.83001 1.93803 -10.6518 
1 -3.59793 1.78169 -8.93534 
2 -1.90035 3.67602 -8.88098 
2 -3.71094 3.60693 -7.04833 
1 -1.85508 1.73461 -7.08195 
1 -0.0469082 3.61502 -7.06141 
1 -0.139739 1.83434 -8.92091 
1 -0.150747 3.84832 -10.8146 
1 -1.94177 0.0741148 -8.80709 
1 -3.63397 0.0990078 -7.12056 
1 3.61575 3.553 -10.775 
1 1.71943 1.88806 -10.668 
1 3.5831 1.84882 -8.84813 
2 1.82757 3.61309 -8.91339 
1 3.65647 3.71742 -7.08056 
2 1.82937 1.88917 -7.10336 
1 3.46936 0.238814 -10.6791 
2 7.1801 3.60113 -10.6114 
1 5.31206 1.86372 -10.7241 
1 7.11341 1.92878 -8.86142 
1 5.29999 3.61699 -8.91276 
1 7.02746 3.59261 -7.04584 
1 5.29134 1.83763 -7.07952 
2 7.16451 0.0421087 -7.03316 
2 7.25068 0.141201 -10.6306 
2 5.30044 0.0993482 -9.00611 
1 9.00258 1.88938 -10.773 
2 10.5969 1.68039 -8.88866 
1 8.88427 3.47769 -8.65091 
1 8.96937 1.67581 -7.11288 
1 10.8124 3.53252 -7.04134 
2 12.5825 1.7152 -7.01073 
1 10.3779 -0.197543 -10.6153 
2 10.6584 -0.192792 -7.19235 
1 8.91247 -0.110096 -8.851 
1 -10.716 5.61487 -8.85054 
1 -10.6305 7.18663 -7.05495 
1 -8.87331 7.43287 -8.76383 
1 -8.98084 5.50091 -7.03868 
1 -8.98101 5.49172 -10.4552 
2 -5.45894 5.48693 -10.7777 
1 -7.19736 7.10891 -10.7057 
1 -7.16275 5.46505 -8.92017 
1 -5.51398 7.32258 -8.75294 
2 -7.09623 7.28707 -7.00075 
1 -5.45976 5.48509 -7.0303 
2 -3.4917 7.28774 -10.8078 
1 -1.77755 5.56716 -10.6754 
1 -1.80936 7.31996 -8.94786 
2 -3.74439 5.58925 -8.85947 
1 -3.67763 7.18999 -7.03285 
1 -1.95206 5.49272 -7.00149 
2 -0.108229 5.48697 -8.84531 
1 0.01183 7.06748 -10.7353 
1 -0.0333378 7.20516 -6.99143 
1 3.43228 7.27108 -10.711 
1 1.82709 5.39917 -10.7227 
2 1.72138 7.3189 -8.8869 
1 3.57846 5.34477 -8.9021 
1 3.42424 7.14436 -7.11503 
1 1.67128 5.44924 -7.11021 
1 7.20237 6.91773 -10.5873 
1 5.21664 5.42892 -10.7211 
1 7.05262 5.28159 -8.83754 
1 5.38352 7.08322 -8.8139 
1 7.13306 7.19066 -6.98696 
1 5.17283 5.39644 -7.15441 
1 9.07992 5.28407 -10.2504 
1 10.7138 5.44001 -8.51063 
1 8.81927 7.09226 -8.71951 
1 8.73587 5.31978 -7.00574 
2 10.5706 7.03461 -6.66981 
1 -9.03571 9.18153 -7.0951 
1 -5.41657 9.02282 -10.5502 
1 -5.36927 10.7257 -8.86871 
1 -7.12484 9.012 -8.76579 
1 -5.38168 9.04751 -7.06076 
1 -7.14471 10.7894 -6.96677 
2 -1.58897 8.99246 -10.7266 
2 -1.87251 10.5478 -8.84957 
1 -3.5735 10.8416 -7.15578 
1 -3.63677 8.85825 -8.77062 
1 -1.74693 8.86405 -7.15813 
1 0.0803178 11.9964 -9.07638 
1 0.0845326 10.6628 -7.14675 
1 -0.0466152 8.87279 -8.76475 
1 1.48134 9.01469 -10.6792 
1 1.98231 10.6581 -8.80285 
1 3.66004 10.8471 -7.07106 
1 3.65862 8.87415 -8.76452 
1 1.79265 8.97353 -7.08796 
1 5.38431 8.61974 -10.5442 
1 5.19162 10.5886 -8.84293 
1 7.08075 10.6477 -7.17503 
1 7.03616 8.82456 -8.82653 
1 5.26985 8.80647 -7.04389 
1 8.96821 8.90939 -6.96795 
1 -1.52094 12.3912 -7.26474 
2 1.73003 12.5934 -7.35452 
2 -14.3992 3.54386 -3.27712 
2 -12.7465 3.58021 -5.04688 
1 -12.8559 0.233499 -5.34422 
1 -14.4699 0.294786 -3.51293 
1 -12.6505 1.84602 -3.27345 
2 -10.9124 1.92149 -5.22281 
1 -10.9001 3.66223 -3.28235 
1 -9.12723 3.79315 -5.29372 
2 -9.0681 1.85891 -3.33048 
1 -10.8453 0.173568 -3.5043 
1 -7.2902 1.95078 -5.33481 
2 -7.10499 3.64586 -3.48428 
1 -5.4663 3.66291 -5.25779 
1 -5.36859 1.89572 -3.4937 
1 -5.30147 0.0513534 -5.22042 
2 -7.11244 0.0783497 -3.44286 
1 -3.58845 1.8454 -5.32244 
1 -1.78162 3.62198 -5.31868 
1 -3.57874 3.5018 -3.55718 
1 -1.76846 1.74636 -3.58825 
1 -0.0901994 1.75106 -5.3777 
1 -0.0423426 3.58056 -3.57374 
1 0.0058627 0.0494904 -3.53021 
1 3.51113 1.75224 -5.44549 
2 1.79187 3.66875 -5.41828 
1 3.65003 3.52674 -3.55133 
2 1.74513 1.83874 -3.52427 
1 3.53034 -0.000485954 -3.67148 
1 6.98409 1.81889 -5.38261 
1 7.06086 3.46693 -3.50652 
1 5.3453 3.5242 -5.29255 
1 5.33787 1.66114 -3.65478 
1 7.1099 0.0494542 -3.61353 
1 10.7253 1.80046 -5.37545 
1 10.7132 3.47786 -3.60662 
2 8.82603 3.54524 -5.35284 
1 8.81194 1.8053 -3.63919 
1 12.4975 1.75833 -3.63566 
1 8.93005 0.0905871 -5.32539 
1 10.6789 -0.0449615 -3.703 
1 12.6396 3.46234 -5.28067 
1 14.1633 3.42671 -3.44057 
2 12.6346 -0.113367 -5.38218 
2 14.3365 -0.232093 -3.62052 
1 -12.678 5.37713 -3.22231 
1 -10.8598 7.35944 -3.53325 
1 -10.8204 5.41122 -5.03044 
2 -9.04105 7.28375 -5.16233 
1 -9.13793 5.53824 -3.43776 
1 -7.02842 7.19763 -3.42015 
1 -7.22791 5.43785 -5.21438 
1 -5.32313 7.25484 -5.21345 
1 -5.30802 5.37045 -3.41234 
1 -1.72899 7.11323 -5.27518 
1 -3.46749 7.16269 -3.52627 
1 -3.63895 5.41364 -5.29414 
1 -1.8909 5.31787 -3.6635 
1 -0.0973707 5.2817 -5.37688 
2 -0.0458091 7.06614 -3.51422 
1 1.80842 7.17535 -5.36815 
2 3.37408 7.22926 -3.52694 
1 3.58147 5.36692 -5.30768 
1 1.68606 5.31227 -3.55701 
1 7.03367 7.20702 -3.51417 
1 7.08107 5.26772 -5.10787 
2 5.28557 7.02081 -5.30785 
1 5.30145 5.27177 -3.48424 
1 10.6381 7.0965 -3.54979 
1 10.6638 5.29994 -5.16969 
1 8.66998 7.13491 -5.10782 
1 8.84391 5.28286 -3.53436 
2 12.4749 5.33343 -3.62343 
1 -10.7969 9.08257 -5.18092 
1 -8.968 10.6694 -5.13084 
1 -8.83506 8.9281 -3.31118 
1 -10.6982 10.4998 -3.34977 
1 -7.31496 10.8337 -3.48653 
1 -5.36316 10.9139 -5.26535 
1 -7.11141 9.07075 -5.10233 
1 -5.28947 9.04731 -3.5525 
1 -1.65231 10.8634 -5.39355 
1 -3.46956 10.7914 -3.65123 
2 -3.51832 8.97785 -5.356 
1 -1.77388 8.94808 -3.49135 
1 0.0172481 9.01573 -5.4029 
1 -1.58011 12.5068 -3.55837 
1 0.0776414 12.5688 -5.42772 
1 0.0382881 10.6936 -3.50143 
2 1.79842 10.7977 -5.35898 
1 3.58627 10.9164 -3.59145 
1 3.49353 8.99325 -5.41594 
1 1.71222 8.97457 -3.47033 
1 1.74147 12.5448 -3.42461 
1 3.77736 12.6349 -5.3752 
1 7.20986 10.9 -3.39304 
2 5.46383 10.821 -5.32829 
1 7.17093 8.93861 -5.34205 
2 5.2626 9.02101 -3.56282 
1 10.5231 9.00994 -5.0506 
1 8.79224 10.7516 -5.32813 
1 8.67343 9.04071 -3.52327 
1 -5.46114 12.5926 -3.6733 
1 -3.43465 12.4733 -5.44411 
1 -3.44699 14.0069 -3.51568 
1 0.0502889 14.2946 -3.46341 
2 1.77515 14.1583 -5.28147 
1 3.45849 14.4946 -3.63802 
1 5.29975 12.7999 -3.43547 
1 -14.4078 3.62394 0.0214903 
1 -14.5599 1.80558 -1.57231 
1 -14.4056 1.74235 1.84063 
1 -12.5547 1.77452 -0.0264666 
2 -12.5456 3.57661 1.82891 
1 -12.5531 -0.00757691 -1.71027 
1 -14.3572 0.109019 0.0947121 
2 -12.4862 0.19901 1.82708 
1 -12.6842 3.52531 -1.53236 
2 -10.8525 3.60285 0.0685005 
1 -10.8425 1.8639 -1.6677 
1 -10.7483 1.95078 1.93053 
1 -9.04938 3.65589 -1.77292 
1 -8.89233 3.62745 1.87917 
1 -9.03661 1.95805 0.0369792 
1 -9.01777 0.0605141 -1.6534 
1 -10.7705 0.161584 -0.00176357 
1 -7.18121 0.0207683 -0.114281 
1 -5.31812 0.31928 -1.68171 
1 -7.22818 3.68187 0.0165931 
1 -7.16238 1.93271 -1.63547 
1 -7.24483 1.82055 1.7558 
1 -5.39943 3.65931 -1.75318 
1 -5.42741 3.72309 1.76824 
1 -5.53136 1.94811 0.094495 
2 -5.46325 0.0794449 1.84167 
1 -3.54416 0.0152527 -0.071519 
2 -3.60101 3.55712 0.153099 
1 -3.55396 1.82102 -1.67306 
2 -1.71857 3.58437 -1.82734 
1 -3.65406 1.7753 1.80392 
1 -1.83892 3.75924 1.72918 
1 -1.80926 1.87001 0.132907 
1 -0.020465 1.8321 -1.7774 
1 -0.0432053 3.6403 0.0882803 
1 -0.0546014 1.81972 1.75412 
1 -1.72473 0.0317344 1.71936 
2 3.65226 3.61321 -0.0208031 
1 3.66374 1.72702 -1.791 
2 1.65859 3.64375 -1.72944 
1 3.60354 1.73571 1.79123 
1 1.62021 3.62974 1.81674 
2 1.73554 1.73173 0.0151051 
1 1.75872 0.126929 -1.68744 
2 3.58774 -0.088352 0.136812 
1 7.10203 3.65605 -0.0333707 
1 6.9869 1.7244 -1.80356 
1 7.14499 1.82457 1.74062 
1 5.30885 3.55853 -1.82975 
1 5.36028 3.53767 1.85153 
2 5.50105 1.76157 0.0119678 
1 5.42337 -0.123331 1.7442 
1 5.46552 -0.103816 -1.77428 
1 7.09176 -0.0641698 -0.0258451 
1 10.52 3.621 -0.00641614 
1 10.6906 1.88357 1.64055 
2 10.545 1.77267 -1.83505 
1 8.79928 3.56578 -1.81204 
1 8.86782 3.63648 1.71399 
1 8.75816 1.73466 -0.0202915 
1 12.4433 1.82291 -0.149277 
1 12.3476 3.51297 -1.81363 
2 8.83937 0.025581 1.68447 
2 12.476 -0.0515517 -1.89629 
1 8.92531 0.110836 -1.87934 
1 10.7226 0.00017247 -0.0314833 
1 12.497 0.0942712 1.54997 
1 12.4576 3.59547 1.52741 
1 14.1879 3.65262 -0.347335 
2 14.3598 1.58854 -1.66566 
1 14.3891 1.9079 1.5613 
1 14.4132 -0.0344258 0.0905381 
1 -12.8195 5.45349 0.0882361 
1 -12.4097 7.18458 -1.82028 
1 -12.4697 7.10929 1.80168 
1 -10.7653 7.12793 -0.032738 
1 -10.9464 5.35302 -1.68502 
1 -10.7914 5.39368 1.74156 
1 -8.91571 7.21564 -1.67951 
2 -9.04051 7.1305 1.73502 
1 -8.93072 5.34087 -0.0504797 
1 -7.15386 7.1416 0.052853 
1 -7.168 5.40147 -1.79772 
2 -5.19392 7.23883 -1.73634 
1 -7.16574 5.38712 1.81338 
1 -5.45702 7.14632 1.84203 
1 -5.41991 5.41966 -0.0688664 
1 -3.52527 7.17029 0.0102546 
1 -1.85915 7.23472 -1.71874 
1 -1.85086 7.17688 1.84067 
1 -3.62532 5.30522 -1.76219 
1 -3.76178 5.48149 1.75763 
2 -1.80436 5.47691 -0.042851 
1 -0.0646063 5.40036 1.93026 
1 -0.11738 5.48687 -1.71357 
1 -0.0431647 7.27663 0.182213 
1 3.49248 7.20422 0.00147057 
1 1.61985 7.09788 -1.61396 
2 1.74533 7.23856 1.82379 
1 3.36285 5.42293 -1.76979 
2 3.4988 5.33695 1.8444 
1 1.5888 5.44817 0.0827276 
1 7.11282 7.20216 -0.0518684 
1 7.04774 5.35236 -1.8277 
2 5.27312 7.11078 -1.79589 
1 7.06105 5.38216 1.85769 
1 5.2476 7.21678 1.85499 
1 5.39694 5.47042 0.140013 
1 10.6016 6.87201 -0.177963 
1 10.5279 5.26165 1.72625 
1 10.5588 5.21625 -1.85403 
1 8.85002 7.11185 -1.90075 
2 9.0772 7.23898 1.73725 
1 8.75908 5.33009 -0.109654 
2 12.0056 7.17507 1.69307 
1 12.3109 7.03967 -1.6884 
1 12.469 5.28153 -0.0554342 
2 -8.8743 10.7488 -1.58583 
1 -8.98139 10.901 1.3316 
2 -10.6984 8.95104 -1.5242 
1 -10.8727 8.9738 1.62177 
1 -8.84855 8.92196 0.00762282 
1 -7.03584 10.6333 0.0175924 
1 -5.33792 10.6774 1.74402 
1 -5.40814 10.7798 -1.8774 
1 -7.06247 8.90582 -1.74632 
1 -7.10003 9.00364 1.75928 
1 -5.38134 8.93476 -0.0209221 
1 -7.15725 12.5019 1.71326 
2 -5.39279 12.6013 -0.0205116 
1 -7.11509 12.4708 -1.73837 
1 -3.57526 10.7751 -0.11289 
2 -1.81987 10.9118 1.84491 
1 -1.74541 10.888 -1.73358 
1 -3.60313 9.07083 -1.85761 
2 -3.59253 8.97636 1.80693 
1 -1.86244 9.01982 0.0987848 
1 -3.5431 12.3708 -1.7707 
1 -1.79779 12.5443 0.0718485 
2 -3.77751 12.6417 1.82311 
1 -0.114476 9.00404 1.93781 
1 0.0730442 10.805 0.139696 
1 0.00408844 12.5417 1.92776 
2 -0.0470564 9.03255 -1.6169 
1 3.43031 10.7273 0.149309 
1 1.87071 10.7316 1.98388 
1 1.79097 10.7834 -1.71327 
1 3.33552 9.04219 -1.73119 
1 3.48149 8.95938 1.85612 
1 1.69712 9.12776 0.125398 
1 -0.00494935 12.6173 -1.72966 
2 1.66601 12.5566 0.202225 
1 6.9942 10.5068 0.00296389 
1 5.27404 10.6461 1.95179 
2 5.25128 10.7556 -1.74005 
1 7.14688 8.87456 -1.82783 
1 7.15888 8.9478 1.93057 
2 5.30691 8.86704 0.0756902 
2 7.13425 12.1301 1.72618 
1 7.2264 12.42 -1.24851 