ITEM: TIMESTEP
1540000
ITEM: NUMBER OF ATOMS
1289
ITEM: BOX BOUNDS pp pp pp
-100 100
-100 100
-100 100
ITEM: ATOMS type x y z 
1 -1.61764 -7.26063 -12.3743 
1 -3.60098 -5.42035 -12.5835 
1 -0.294434 -5.31769 -12.4041 
1 1.38107 -6.97507 -12.4883 
1 3.37393 -5.3685 -12.3611 
1 -7.23915 -1.72903 -12.3888 
2 -5.35081 -3.68946 -12.3693 
1 -5.39519 -0.0263284 -12.5134 
2 -1.92633 -1.71272 -14.5032 
2 -3.68274 -1.83091 -12.6423 
1 -1.92965 -3.64514 -12.5489 
1 -0.156035 -1.86757 -12.5549 
1 -0.0639126 -3.45088 -14.3132 
2 -0.0141843 0.0609939 -14.5809 
2 -1.84318 -0.0153461 -12.5802 
2 3.41281 -3.49612 -14.1188 
1 1.55738 -3.69402 -12.4091 
1 3.29757 -1.8342 -12.3254 
1 1.60781 -1.92821 -14.32 
2 3.32235 -0.0401478 -14.3003 
2 1.62686 -0.00509122 -12.4635 
1 5.29646 -1.77428 -14.1521 
2 7.07916 -1.80451 -12.4805 
2 5.24577 -3.60415 -12.4086 
2 5.18696 0.0461609 -12.4942 
1 -1.72819 -12.4369 -7.15942 
1 -9.03744 -8.8798 -7.1732 
2 -5.42599 -10.6417 -8.79834 
1 -5.32019 -8.92586 -10.6218 
1 -7.30397 -8.95269 -8.94614 
1 -5.50924 -8.93029 -7.06271 
1 -7.31496 -10.6452 -7.00052 
1 -1.95447 -10.7861 -8.95963 
1 -1.86534 -9.13616 -10.7247 
1 -3.76913 -10.8345 -7.01856 
2 -3.63495 -8.99328 -8.75959 
1 -1.86246 -8.97432 -7.10576 
1 -0.00119532 -8.96267 -8.97227 
1 1.92315 -12.4921 -7.08341 
2 0.0363495 -10.7499 -7.14274 
1 -0.0316898 -10.7175 -10.4886 
1 1.68907 -8.99151 -10.823 
2 2.02538 -10.7488 -9.01868 
1 3.66599 -10.7029 -7.02557 
2 3.5127 -8.89014 -8.84636 
1 1.79427 -9.04319 -7.077 
1 5.25887 -10.7933 -8.73116 
1 7.18799 -9.01595 -8.90627 
1 5.4472 -8.75658 -7.22636 
1 7.02346 -10.7472 -6.99689 
1 5.38102 -8.77648 -10.4202 
1 8.92063 -8.87106 -7.1253 
1 -10.8072 -5.10038 -8.96101 
1 -9.06002 -5.15769 -10.5271 
1 -9.12074 -6.94202 -8.89597 
2 -9.03471 -5.07176 -7.13591 
2 -10.7188 -6.95766 -7.03885 
1 -7.27762 -7.03714 -10.6476 
1 -5.40345 -5.38246 -10.6248 
1 -7.22908 -5.29873 -8.93152 
1 -5.44319 -7.10285 -9.02219 
2 -7.23334 -7.05427 -7.22997 
1 -5.47003 -5.3062 -7.2359 
2 -3.55779 -7.16822 -10.7601 
1 -1.87704 -5.33077 -10.6664 
1 -1.83942 -7.2213 -8.91349 
1 -3.73362 -5.44237 -8.88578 
1 -3.74119 -7.16111 -7.12876 
2 -1.94269 -5.40131 -7.09118 
2 -0.130529 -7.26286 -7.09224 
1 -0.02092 -7.13503 -10.6391 
2 -0.0355986 -5.37553 -8.92365 
2 3.45984 -7.08409 -10.6559 
1 1.59998 -5.33904 -10.6557 
1 1.76082 -7.21173 -8.78646 
1 3.54275 -5.24805 -8.87116 
1 3.62531 -7.12969 -7.13789 
2 1.79381 -5.38899 -7.159 
1 7.17417 -6.93126 -10.6963 
1 5.17607 -5.39237 -10.6545 
1 5.3788 -7.04559 -8.87092 
1 7.04491 -5.39977 -8.74385 
1 7.0253 -7.14154 -7.06853 
1 5.1804 -5.36556 -7.13785 
1 9.02385 -5.31047 -10.3834 
1 10.6805 -5.20827 -8.68465 
1 10.7007 -6.9542 -7.14934 
2 8.75848 -7.09846 -8.83148 
1 8.87139 -5.24182 -7.1547 
1 -12.5536 -1.60041 -7.27481 
1 -10.7575 -1.89684 -8.91411 
1 -8.91347 -1.60331 -10.6355 
1 -10.9243 -3.48455 -7.02467 
1 -8.8035 -3.39786 -8.93078 
1 -9.00034 -1.91562 -7.08613 
1 -10.8453 -0.156802 -7.1118 
1 -8.92001 -0.0713481 -8.66353 
1 -7.30743 -3.56226 -10.8401 
1 -5.32366 -1.82788 -10.7006 
1 -7.18137 -1.67077 -8.92726 
1 -5.52153 -3.56039 -8.89442 
1 -7.13902 -3.49183 -7.10306 
1 -5.40443 -1.82281 -7.24566 
1 -7.09006 0.0341095 -10.6715 
1 -5.31059 -0.0595535 -8.98568 
1 -7.07963 -0.0366324 -7.14054 
1 -3.56247 -3.61883 -10.766 
1 -1.81241 -1.7999 -10.792 
1 -3.49376 -1.58904 -9.1286 
2 -1.9424 -3.64976 -8.91498 
1 -3.78253 -3.56809 -7.21382 
1 -1.86369 -1.79259 -7.12248 
1 -0.0775213 -3.45148 -7.13085 
1 -0.191733 -3.59337 -10.7108 
1 -0.163189 0.017722 -10.6635 
1 -0.132238 0.0841526 -7.09505 
1 -1.79224 0.0921005 -8.88787 
1 -0.178368 -1.7457 -9.06743 
1 3.39158 -3.5613 -10.6023 
1 1.55858 -1.89178 -10.8303 
1 1.59109 -3.4507 -8.99738 
2 3.47392 -1.8969 -8.79039 
1 3.48554 -3.57926 -7.04159 
1 1.71371 -1.8049 -7.06081 
1 3.61313 -0.0564647 -7.09733 
1 3.3529 0.0780405 -10.6775 
2 1.5799 -0.0164149 -8.83679 
1 7.1929 -3.76041 -10.6517 
1 5.24789 -1.79105 -10.6383 
1 7.15928 -1.80594 -8.98116 
1 5.45988 -3.59 -8.91892 
1 7.06528 -3.53874 -7.09974 
1 5.37664 -1.73051 -7.15172 
2 7.01797 0.0726901 -7.09157 
2 5.28095 0.0557036 -8.94637 
1 8.92856 -2.06987 -10.6902 
1 10.6071 -3.57032 -6.9754 
1 8.80011 -3.56099 -8.73809 
2 8.85712 -1.70451 -7.12106 
2 10.677 -1.76526 -8.9036 
1 12.469 -1.76773 -7.03339 
1 -5.57994 -12.4826 -3.47273 
1 -1.94744 -14.072 -5.3098 
1 -3.82144 -12.5785 -5.27805 
2 0.132993 -14.2446 -3.6128 
1 -1.88889 -12.4956 -3.50068 
1 0.0569941 -12.4686 -5.48189 
2 2.00549 -12.6009 -3.59575 
1 3.64508 -12.5265 -5.26631 
1 2.22958 -14.3732 -1.74215 
1 -10.7414 -8.61049 -5.12726 
1 -8.82662 -10.5538 -5.23155 
2 -8.82839 -8.87552 -3.45475 
1 -7.28127 -10.7869 -3.38129 
1 -5.7052 -10.8186 -5.29507 
1 -7.17277 -8.77676 -5.39617 
1 -5.53688 -8.9269 -3.60884 
2 -2.02651 -10.7984 -5.31997 
1 -3.84513 -10.6911 -3.61865 
1 -3.78738 -9.00476 -5.39117 
2 -1.9514 -8.96903 -3.61348 
2 0.0409245 -10.7677 -3.63448 
1 -0.0336279 -9.01569 -5.37291 
1 1.90023 -10.6465 -5.3399 
1 3.63816 -10.6354 -3.53557 
1 3.65773 -8.83286 -5.32008 
1 1.86672 -9.06585 -3.61372 
1 5.31319 -12.4329 -3.54345 
2 6.96655 -10.8031 -3.641 
1 5.2145 -10.7781 -5.31517 
1 6.99819 -8.86354 -5.30495 
2 5.36195 -8.73237 -3.49394 
1 8.82675 -10.5873 -5.3072 
2 8.85372 -8.87088 -3.52026 
1 10.7074 -8.67874 -5.31898 
1 -12.7247 -5.27761 -3.58811 
1 -10.7805 -6.87846 -3.43095 
1 -11.0051 -5.32907 -5.39216 
2 -9.00072 -6.88183 -5.30172 
1 -8.91634 -5.20571 -3.49246 
1 -7.15082 -7.01266 -3.54399 
1 -7.07691 -5.27881 -5.21489 
1 -5.40326 -7.14924 -5.30302 
1 -5.30846 -5.32036 -3.55339 
1 -1.91775 -7.19824 -5.34979 
1 -3.70398 -7.23565 -3.63776 
1 -3.71816 -5.49138 -5.39459 
1 -1.97218 -5.38789 -3.67272 
1 -0.133931 -7.28599 -3.6354 
2 -0.0679606 -5.28543 -5.35071 
2 1.78558 -7.14144 -5.34417 
1 3.52219 -7.06351 -3.58742 
1 3.49885 -5.34718 -5.30163 
1 1.7655 -5.25732 -3.62067 
1 7.09926 -7.03748 -3.55985 
1 5.34798 -7.07621 -5.30481 
1 7.02429 -5.25729 -5.42357 
1 5.32 -5.3122 -3.61212 
1 10.8222 -7.07025 -3.44331 
1 10.8346 -5.36812 -5.25717 
2 8.9063 -6.95524 -5.39163 
2 8.77622 -5.37332 -3.48145 
1 12.6352 -5.14091 -3.26453 
1 -14.2478 -3.33488 -3.46835 
1 -12.7052 -3.38492 -5.41462 
2 -12.5943 -1.6053 -3.6406 
1 -10.8465 -1.67127 -5.35327 
2 -10.7763 -3.45073 -3.6756 
1 -8.93134 -3.45688 -5.32319 
2 -8.90548 -1.77685 -3.60637 
2 -9.08264 0.109597 -5.52058 
2 -7.11799 -1.76168 -5.36837 
1 -6.97141 -3.6417 -3.5665 
1 -5.26151 -3.63376 -5.34572 
1 -5.29298 -1.67921 -3.5905 
1 -5.33046 0.0602764 -5.39894 
1 -3.61342 -1.69027 -5.27159 
1 -1.77156 -3.48243 -5.41915 
1 -3.60691 -3.57203 -3.67014 
1 -1.86512 -1.67903 -3.6438 
1 -0.0737376 -1.64399 -5.35112 
1 -0.0628611 -3.49879 -3.67385 
1 -3.62479 0.0750199 -3.58672 
1 1.73744 -3.49757 -5.33009 
1 3.47828 -1.75078 -5.31598 
1 3.48795 -3.60127 -3.55602 
2 1.73175 -1.72114 -3.52903 
1 7.00909 -1.79349 -5.35996 
1 7.13059 -3.57702 -3.41133 
1 5.23335 -3.55061 -5.42887 
1 5.26828 -1.80556 -3.63778 
1 10.5183 -1.68402 -5.35771 
1 10.6341 -3.5782 -3.46139 
1 8.92284 -3.55474 -5.28578 
1 8.81285 -1.93069 -3.53208 
1 12.0651 -1.53447 -3.5245 
1 8.87604 0.0529921 -5.32139 
1 10.3904 -0.0530565 -3.53899 
2 12.4378 0.00583034 -5.38927 
2 12.4005 -3.22737 -5.15522 
2 14.0723 -2.79765 -3.16807 
2 14.2145 -0.144252 -3.66069 
1 -5.13052 -12.5091 0.0773584 
1 -1.94587 -14.2093 -1.88373 
1 -3.54632 -14.192 0.330271 
1 -1.45849 -14.3807 1.6743 
1 -3.61689 -12.5636 -1.76323 
2 0.0396882 -12.5278 -1.75934 
1 0.187121 -14.4392 -0.291291 
1 3.55213 -14.276 0.433741 
2 1.51128 -14.1165 1.98958 
1 3.48094 -12.2775 1.73761 
1 5.07336 -14.1368 -1.85102 
1 5.19355 -12.4569 0.0548252 
1 -10.8711 -10.248 0.143935 
1 -10.9087 -8.74258 -1.89107 
1 -9.09004 -10.6215 -1.46355 
2 -8.70347 -10.6157 1.69014 
1 -8.80001 -8.75305 0.0372439 
2 -10.5336 -8.7093 1.97248 
2 -6.82423 -12.6315 1.70734 
2 -7.18288 -12.3805 -1.40916 
1 -7.05153 -10.5761 -0.0328529 
2 -5.29731 -10.7027 -1.66499 
2 -5.24255 -10.761 1.76813 
1 -7.15872 -8.79603 -1.71047 
1 -7.08392 -8.78413 1.62393 
1 -5.41567 -8.82537 -0.0247812 
1 -1.61332 -12.4703 -0.0499481 
1 -3.29849 -12.3162 1.76359 
1 -3.36382 -10.718 0.000302267 
1 -1.74541 -10.7484 -1.73844 
1 -1.65813 -10.5993 1.82865 
1 -3.54747 -8.88353 -1.72809 
1 -3.61807 -8.93229 1.77124 
1 -1.68579 -8.85213 -0.0407008 
1 0.0124868 -10.6175 -0.0457141 
1 -0.0354109 -8.90942 -1.89894 
1 -0.10944 -12.4175 1.71959 
1 -0.101042 -8.89592 1.71569 
1 3.54806 -12.3306 -1.69388 
2 1.74599 -12.425 0.0657951 
1 3.64551 -10.5263 0.0750295 
1 1.83321 -10.6445 -1.79012 
1 1.73089 -10.6866 1.78536 
1 3.61676 -8.90428 -1.67326 
1 3.42485 -8.8276 1.73113 
1 1.75518 -8.92213 -0.00376172 
2 7.01976 -12.5263 -1.71158 
1 6.95846 -12.5624 1.72623 
1 7.0799 -10.6271 -0.0909389 
1 5.34421 -10.6571 -1.73763 
1 5.2114 -10.5682 1.76101 
1 7.10604 -8.86816 -1.77484 
2 7.1227 -8.92152 1.79973 
1 5.39789 -8.81385 -0.0266149 
1 8.90131 -12.2915 0.0241995 
1 8.90972 -10.6502 -1.81637 
1 10.8226 -8.99721 -1.72342 
1 10.7139 -8.98617 1.7241 
2 8.85048 -8.93848 0.131456 
1 9.01707 -10.768 1.83216 
1 -12.5362 -6.94333 -1.76632 
1 -12.6123 -5.23276 0.0503667 
2 -10.672 -7.15776 -0.0169805 
1 -10.8049 -5.1452 -1.80195 
1 -10.6777 -5.35162 1.80654 
1 -8.94668 -7.0623 -1.7891 
1 -8.81231 -6.99204 1.77433 
1 -8.99283 -5.26033 -0.102641 
1 -7.15383 -7.014 -0.169046 
1 -7.03312 -5.31692 -1.72048 
1 -5.341 -7.14209 -1.82543 
2 -7.14634 -5.43793 1.70654 
1 -5.25426 -7.09363 1.75701 
1 -5.24678 -5.36769 -0.0864977 
1 -3.66254 -7.19161 -0.0204324 
1 -1.81617 -7.15832 -1.84005 
1 -1.86121 -7.2925 1.73947 
1 -3.61516 -5.39667 -1.84526 
1 -3.41473 -5.37632 1.6369 
2 -1.78976 -5.42507 -0.11193 
1 -0.070076 -5.4139 -1.94982 
1 -0.0942911 -5.34191 1.75102 
1 0.0291937 -7.18605 -0.0619679 
1 3.48581 -7.23861 0.0523325 
2 1.74853 -7.18807 -1.88376 
1 1.65309 -7.18894 1.80374 
2 3.52015 -5.28999 -1.7228 
1 3.35682 -5.38984 1.63251 
1 1.59927 -5.48738 0.0211116 
1 7.16728 -7.14295 -0.0636899 
1 5.31565 -6.96871 -1.6489 
1 7.01643 -5.4602 -1.716 
1 5.30401 -7.14729 1.70841 
2 7.12176 -5.35906 1.7343 
1 5.28228 -5.32722 0.121686 
1 10.7703 -7.14591 -0.0187797 
1 10.656 -5.24067 1.65646 
1 10.719 -5.40903 -1.76668 
1 8.8887 -7.16372 -1.71753 
1 8.92175 -7.07693 1.82264 
1 8.99728 -5.41476 -0.0150752 
1 12.4839 -7.10865 -1.75637 
2 12.521 -5.20505 -0.192493 
1 12.4702 -6.98825 1.45906 
1 -14.1634 -3.31093 0.204674 
2 -14.1061 -1.56289 -1.65931 
1 -14.0396 -1.61551 1.89256 
1 -12.4714 -3.35939 -1.75581 
1 -14.4167 -0.0486686 0.182529 
1 -12.3276 -3.50505 1.77715 
1 -12.2446 -1.72024 0.102175 
1 -10.7424 -3.57188 -0.092161 
1 -10.6181 -1.76365 -1.73492 
1 -10.6616 -1.80158 1.83238 
1 -8.77409 -3.54694 -1.7998 
2 -8.96143 -3.60181 1.75325 
1 -8.77154 -1.79158 -0.161286 
1 -7.00818 -3.69538 -0.0593045 
1 -7.04112 -1.86657 -1.77968 
1 -7.18938 -1.83885 1.7563 
1 -5.2088 -3.60293 -1.79047 
2 -5.33842 -3.56727 1.74347 
2 -5.28018 -1.7763 -0.236304 
1 -3.56337 -3.51058 -0.0385587 
1 -3.58854 -1.72317 -1.89717 
2 -1.85712 -3.51537 -1.94822 
2 -3.54764 -1.8202 1.68101 
1 -1.86474 -3.57275 1.78966 
1 -1.71275 -1.6873 -0.00470417 
1 -0.0522259 -1.90244 1.76705 
1 -0.111083 -1.72723 -1.7878 
1 -0.0818028 -3.52833 0.0787718 
1 -0.0787549 0.0945539 -0.0490627 
1 -1.81392 0.0314833 -1.80804 
2 3.60402 -3.59756 0.168782 
2 1.63419 -3.58774 -1.70142 
1 3.61149 -1.82922 -1.7278 
1 1.6556 -3.649 1.85488 
1 3.5315 -1.79063 1.95929 
1 1.74376 -1.83252 0.0516353 
2 1.65288 -0.0947882 1.86428 
1 1.73006 -0.0918001 -1.69776 
1 7.05266 -3.63822 -0.0358772 
1 6.97608 -1.85874 -1.79576 
1 7.06427 -1.91833 1.94392 
1 5.38286 -3.61473 -1.79544 
1 5.29668 -3.5694 1.85177 
2 5.43673 -1.76407 0.106842 
1 5.2919 -0.0325158 1.94787 
1 7.07956 -0.0956707 0.0906423 
1 10.6063 -3.57779 -0.0952882 
1 10.6144 -1.84848 1.76394 
1 10.5863 -1.69489 -1.75561 
1 8.86674 -3.59611 -1.79966 
1 8.84932 -3.54948 1.79805 
2 8.78812 -1.88383 0.0601615 
1 12.1644 -3.31348 -1.83962 
1 8.79039 -0.0604858 -1.69036 
1 12.4791 -1.6737 0.0342428 
2 12.5019 -3.54415 1.66546 
1 12.3608 0.0627765 1.58701 
2 14.1071 -3.34885 -0.404437 
1 14.8908 -1.30973 -1.44371 
1 14.3086 -1.87161 1.57115 
2 12.5229 -0.0592094 -1.63393 
2 -3.05806 -14.1697 3.47554 
1 -0.172198 -14.2 3.82709 
1 3.41733 -14.0244 3.43982 
1 -10.3956 -10.9327 3.50433 
1 -10.662 -8.92796 5.07335 
2 -8.46928 -8.88259 3.68667 
2 -8.92105 -10.7436 5.47013 
2 -5.1015 -12.5711 3.60811 
1 -7.18144 -11.025 3.62085 
1 -5.34691 -10.9171 5.63191 
1 -6.93242 -9.12716 5.6105 
2 -5.44735 -8.93574 3.6582 
2 -3.24151 -12.3233 5.25464 
2 -0.0581224 -12.3375 5.32908 
1 -1.56445 -12.2208 3.5269 
1 -1.61066 -10.4797 5.30174 
1 -3.46448 -10.6815 3.48485 
2 -3.61353 -9.18061 5.45423 
1 -1.92523 -8.83741 3.68027 
1 -0.0584269 -8.72868 5.39471 
1 3.31569 -12.334 5.20204 
1 0.0324362 -10.4224 3.51504 
1 1.50773 -12.2841 3.47325 
1 1.62704 -10.4407 5.37814 
2 3.46092 -10.5915 3.58705 
1 3.65413 -8.83561 5.45143 
1 1.67349 -8.76395 3.57312 
1 5.21395 -12.4187 3.48117 
1 7.21597 -10.8623 3.57741 
1 5.17726 -10.7569 5.47259 
2 7.27469 -8.86091 5.28241 
2 5.43768 -8.96123 3.65902 
1 8.98674 -10.679 5.43686 
2 9.13111 -8.95258 3.62721 
2 10.8373 -8.36033 5.3924 
1 -12.316 -5.236 3.58771 
1 -10.6037 -7.05297 3.60894 
1 -10.6422 -5.4312 5.3356 
1 -8.71623 -7.15043 5.37084 
1 -8.87306 -5.39935 3.6783 
1 -7.0431 -7.0041 3.66991 
1 -7.00562 -5.40493 5.5637 
1 -5.25546 -7.26891 5.49586 
2 -5.1087 -5.51569 3.62798 
1 -1.92787 -7.21977 5.45069 
1 -3.60147 -7.40596 3.70609 
1 -3.61646 -5.40114 5.56719 
2 -1.98155 -5.43724 3.54627 
1 -0.00846373 -7.20866 3.53051 
2 -0.0540296 -5.53798 5.36584 
1 1.88735 -7.16749 5.29448 
1 3.50767 -7.07736 3.46749 
1 3.50097 -5.31461 5.37686 
1 1.76892 -5.42414 3.53627 
1 7.08796 -7.06369 3.45238 
1 5.24316 -7.09368 5.32273 
2 7.06081 -5.41632 5.28683 
2 5.07524 -5.44699 3.39009 
1 10.7474 -7.08507 3.35673 
1 10.856 -5.62278 5.3775 
1 8.861 -7.10439 5.36308 
1 8.98549 -5.46913 3.59688 
2 12.3955 -5.32054 3.44305 
1 -13.8969 -3.30482 3.62377 
1 -12.2063 -3.49711 5.40984 
1 -12.2287 -1.67691 3.61634 
1 -10.4539 -1.84581 5.42603 
1 -10.6297 -3.59148 3.60602 
1 -8.98209 -3.69778 5.40862 
2 -8.90609 -1.7157 3.53819 
1 -8.94843 0.0650478 5.42057 
1 -12.4871 -0.372127 5.48488 
1 -7.26149 -1.77474 5.51104 
2 -7.15711 -3.59137 3.69801 
1 -5.27676 -3.5986 5.5022 
1 -5.5338 -1.80311 3.64671 
1 -7.21416 -0.0178683 3.65071 
2 -3.73978 -1.60097 5.28694 
2 -1.92413 -3.59758 5.42598 
1 -3.64325 -3.52846 3.55387 
1 -1.85121 -1.8722 3.56451 
1 -0.150569 -1.76962 5.28455 
1 -0.10592 -3.65041 3.47165 
1 -0.120207 -0.0875331 3.62217 
1 1.58013 -3.61812 5.32657 
1 3.41013 -1.85952 5.24358 
1 3.38203 -3.63411 3.65725 
1 1.69261 -1.88093 3.53685 
1 1.74788 -0.0196205 5.39898 
1 7.12116 -1.84496 5.36435 
1 7.16649 -3.58125 3.56486 
1 5.33415 -3.52784 5.27883 
1 5.33948 -1.91553 3.56771 
1 5.21247 -0.136205 5.22551 
2 7.06809 0.0317833 3.65714 
2 10.8564 -1.89402 5.36362 
1 10.6362 -3.71847 3.5516 
2 8.94741 -3.64029 5.40112 
1 8.99214 -1.83662 3.6573 
2 12.5175 -1.82104 3.40024 
2 14.2978 0.0808835 3.18071 
1 12.8261 -3.75933 5.2626 
1 14.376 -3.69257 3.17683 
1 14.3918 -1.69743 5.08588 
1 -9.02632 -8.94606 7.20324 
1 -5.21963 -9.06982 10.7584 
1 -5.2889 -10.7158 9.00664 
1 -7.00085 -11.0251 7.20404 
2 -6.94511 -9.0073 8.80395 
1 -5.2183 -8.9771 7.27559 
1 -1.69475 -12.2524 7.26422 
2 -1.71576 -8.8666 10.853 
1 -1.52248 -10.6173 9.12041 
1 -3.62199 -10.9548 7.33532 
1 -3.52846 -8.96635 9.09775 
1 -1.77713 -9.08466 7.35571 
1 0.0347024 -8.85987 9.00229 
1 0.0635208 -10.569 7.2423 
1 1.54582 -12.3619 7.15099 
1 1.82512 -10.591 8.9344 
1 3.46513 -10.5992 7.1477 
1 3.50999 -8.79781 8.86077 
1 1.87694 -8.73644 7.16771 
1 1.72016 -8.83771 10.7244 
1 7.08757 -10.3908 7.06314 
1 5.05826 -8.85295 10.6626 
1 5.26608 -10.5709 8.82009 
1 7.05154 -8.91951 8.95427 
1 5.25825 -8.89706 7.16579 
1 8.94011 -8.85626 7.14937 
1 -10.5445 -5.61063 8.93897 
2 -10.6042 -7.20135 6.81547 
1 -8.74658 -7.20542 9.05478 
1 -8.76985 -5.54454 7.26764 
1 -8.71264 -5.46721 10.7127 
1 -5.47444 -5.38443 10.8634 
1 -6.94958 -7.32566 10.777 
1 -6.95332 -5.47905 8.96069 
1 -5.28389 -7.20142 9.00333 
1 -6.9964 -7.20865 7.12104 
1 -5.39947 -5.44095 7.1825 
2 -3.65907 -7.20406 10.8842 
1 -1.78038 -5.36166 10.7867 
1 -1.79946 -7.27469 8.91363 
2 -3.54476 -5.49335 9.0253 
1 -3.53937 -7.2306 7.20866 
1 -1.78907 -5.41292 7.20262 
1 0.0436792 -6.93113 10.6523 
2 0.0111899 -5.35629 8.99162 
1 -0.175217 -7.26564 7.26224 
1 3.46953 -7.05341 10.6589 
1 1.91158 -5.31066 10.7108 
1 1.83009 -7.08803 9.00762 
1 3.5086 -5.31534 8.92699 
1 3.53052 -7.11269 7.14569 
2 1.74393 -5.5045 7.14207 
1 6.83478 -7.21769 10.7697 
1 5.32418 -5.3285 10.6545 
1 5.19081 -7.15432 8.86323 
1 7.01878 -5.40732 8.83067 
1 7.10426 -7.23881 7.2381 
2 5.38495 -5.33621 7.11032 
1 8.77257 -5.358 10.4748 
1 10.5118 -5.30925 8.80435 
1 10.7115 -7.122 7.35152 
1 8.69452 -7.24985 8.92706 
1 8.89513 -5.50119 7.09023 
1 -11.2101 -0.47495 9.47314 
2 -12.0592 -1.78506 7.36835 
1 -9.06194 -1.84706 10.684 
1 -10.981 -2.94423 9.52978 
2 -10.6972 -3.89907 7.20126 
1 -8.73889 -3.71424 9.01731 
2 -9.02806 -1.87961 7.42894 
1 -7.18909 -3.63219 10.831 
1 -5.36426 -1.76715 10.8682 
1 -7.13219 -1.6919 9.10661 
2 -5.39993 -3.60386 9.0497 
1 -7.18863 -3.52786 7.17997 
1 -5.41507 -1.77649 7.23613 
1 -3.68878 -3.50102 10.809 
1 -1.81844 -1.7658 10.8327 
1 -3.68975 -1.76028 9.06926 
2 -1.84551 -3.43227 9.0776 
1 -3.63203 -3.55851 7.29577 
1 -1.81196 -1.76255 7.17299 
1 -3.62501 -0.0149053 10.7143 
1 -0.0174954 -1.76818 8.97656 
1 0.0866497 0.027735 10.603 
2 -3.63381 -0.0427245 7.24331 
1 0.040011 -3.52241 10.6638 
2 -0.0720033 -3.52471 7.15417 
1 1.76172 -1.78822 7.14557 
2 3.55577 -3.53444 7.20311 
1 1.86472 -1.79256 10.6815 
1 1.75842 -3.47877 8.95067 
1 3.59776 -1.86578 9.00852 
1 3.62097 -3.50521 10.6484 
1 7.0576 -3.49119 7.06356 
1 5.18175 -1.83902 7.04342 
1 7.22254 -3.57339 10.6515 
1 7.08493 -1.77815 8.82649 
1 5.4312 -3.43106 8.92693 
1 5.36326 -1.78398 10.7195 
1 5.27627 -0.0711562 8.88674 
1 7.21129 -0.0111573 10.659 
1 8.95837 -1.77037 7.09779 
1 10.9092 -3.73257 7.03506 
2 8.97778 -0.0386278 9.03967 
2 10.7385 -1.92896 8.74076 
1 9.05468 -1.93438 10.7486 
1 8.76906 -3.55916 8.74436 
1 12.2746 -0.0245608 9.05743 
2 12.8423 -1.72829 7.04198 
1 0.104916 -8.68114 12.6219 
1 -0.0205281 -6.71861 14.236 
1 -3.5872 -5.22758 12.586 
1 -1.75871 -7.02613 12.61 
1 0.0659499 -5.43386 12.3186 
1 1.8294 -5.40848 14.2186 
1 3.62083 -5.37419 12.4722 
2 1.85711 -7.16724 12.5005 
1 -5.23022 -0.197224 12.6738 
1 -7.08954 -1.63088 12.3909 
1 -5.36476 -3.37809 12.4925 
1 -3.30594 -0.0684583 14.3162 
1 -1.65643 -1.81958 14.2468 
1 -3.4449 -1.91172 12.6603 
1 -1.80137 -3.64251 12.4141 
1 -1.82943 -0.06688 12.3989 
1 1.7645 0.0370695 12.4583 
1 1.74671 -1.9471 14.1792 
1 1.76932 -3.57623 12.3074 
1 3.46136 -1.71577 12.4597 
1 3.47259 -0.0733098 14.1851 
1 0.150754 0.055246 14.2113 
2 -0.14401 -3.6776 14.0959 
1 0.0827114 -1.65579 12.4593 
1 7.16864 -1.67801 12.3487 
2 5.36533 -3.50932 12.3007 
1 -7.05688 1.84687 -12.3185 
1 -5.29995 3.77291 -12.7011 
2 -1.85513 1.93681 -14.3261 
2 -3.71472 1.90029 -12.6791 
1 -1.78818 3.7503 -12.4888 
2 -0.0890215 1.88169 -12.4211 
1 -3.59702 0.0942499 -14.4779 
1 -0.0829024 3.75822 -14.3843 
1 3.42133 3.64954 -14.3115 
1 3.41201 1.7792 -12.5234 
2 1.76845 3.72526 -12.6134 
1 1.51407 1.9102 -14.4441 
1 4.99611 1.79143 -14.3705 
1 6.85503 1.83925 -12.6853 
1 5.15245 3.71349 -12.6925 
1 -1.86936 7.19296 -12.5186 
1 -3.55425 5.50783 -12.4954 
1 -0.104895 5.4837 -12.5451 
1 1.68697 7.19475 -12.4472 
1 3.494 5.62302 -12.6051 
1 -12.0507 1.86917 -7.4725 
1 -11.1969 3.17865 -9.43965 
1 -9.15479 1.74296 -10.6096 
2 -8.9654 3.83199 -9.01078 
2 -9.31055 1.94177 -7.44814 
1 -10.8057 3.96015 -7.11566 
1 -11.1872 0.67304 -9.31749 
1 -7.2537 3.71564 -11.0054 
2 -5.30787 1.9291 -10.6766 
2 -7.33123 1.93327 -9.02315 
1 -5.49574 3.7814 -9.11094 
1 -7.12609 3.57338 -7.21338 
2 -5.29427 1.82456 -7.1934 
1 -3.56073 3.63736 -10.7399 
1 -1.97656 1.81023 -10.7712 
1 -3.55684 1.78359 -8.96661 
2 -1.72958 3.69856 -9.04126 
2 -3.51503 3.55353 -7.11018 
1 -1.7899 1.74552 -7.17633 
1 -0.0129739 3.78032 -10.818 
1 -0.159767 3.51335 -7.02307 
1 -3.51653 -0.0132427 -7.14494 
1 -0.136244 1.83595 -8.9986 
1 -3.69351 -0.0299857 -10.9032 
1 3.55137 3.79749 -10.8772 
1 1.6029 1.90176 -10.6623 
1 3.55313 1.79174 -9.09299 
2 1.74398 3.65874 -8.95179 
1 3.46513 3.74571 -7.1962 
2 1.7679 1.7306 -7.1335 
2 6.91081 3.64337 -10.9365 
1 5.18015 1.89005 -10.7938 
1 6.95445 1.91052 -9.01338 
1 5.22099 3.55934 -9.05555 
1 7.02747 3.4666 -7.04335 
1 5.04697 1.92452 -7.20315 
2 7.2323 -0.0258388 -10.7456 
1 8.80002 1.95646 -10.9739 
2 10.5951 1.9689 -8.99414 
1 8.59512 3.42576 -9.11938 
1 8.92644 1.7976 -7.04452 
1 10.5821 3.67001 -7.13635 
2 12.3256 1.86513 -7.04068 
2 10.7052 0.0886502 -7.3169 
1 8.6851 0.245016 -8.80628 
1 10.1672 0.0563971 -10.6832 
1 -10.7207 5.57959 -8.78592 
1 -10.6799 7.10096 -6.84407 
1 -9.12128 7.38996 -8.86631 
1 -8.89304 5.45445 -7.02077 
1 -8.7331 5.65292 -10.5591 
2 -5.55591 5.47218 -10.906 
1 -7.03864 7.42513 -10.7608 
1 -7.1586 5.45366 -8.81308 
1 -5.41323 7.17576 -8.89796 
2 -7.18832 7.26095 -7.1764 
1 -5.35737 5.43126 -7.0748 
2 -3.77026 7.32547 -10.8458 
1 -1.87161 5.47177 -10.7768 
1 -2.03663 7.42108 -8.93797 
2 -3.5942 5.55454 -8.94692 
1 -3.60118 7.19103 -7.16907 
1 -1.83538 5.43653 -7.17294 
2 -0.0982568 5.56636 -8.87115 
1 -0.136268 7.2014 -10.7422 
1 -0.0711405 7.27939 -7.1396 
1 3.43946 7.25875 -10.7619 
1 1.79785 5.48157 -10.7512 
2 1.76259 7.27358 -8.82622 
1 3.53879 5.45372 -8.98454 
1 3.49194 7.00998 -7.01536 
1 1.61974 5.43592 -7.11112 
1 6.96821 7.23075 -10.3906 
1 5.238 5.67531 -10.8425 
1 6.92583 5.33008 -8.95395 
1 5.2779 7.22485 -8.81831 
1 7.06005 7.11921 -7.34401 
1 5.29417 5.23734 -7.13963 
1 8.68877 5.36758 -10.6197 
1 10.3835 5.09671 -9.01399 
1 8.88161 7.04595 -8.94032 
1 8.68231 5.20583 -7.19133 
2 10.4029 6.91061 -7.1568 
1 -9.01562 9.15352 -7.06152 
1 -5.44584 9.30817 -10.6098 
1 -5.40512 10.8564 -8.77674 
1 -7.20619 9.15366 -8.90414 
1 -5.43133 9.06038 -7.00121 
1 -7.17598 10.6939 -6.9039 
2 -1.81219 8.97041 -10.7183 
2 -1.95685 10.5881 -8.78791 
1 -3.69934 10.8653 -7.04022 
1 -3.74534 8.9945 -8.83105 
1 -1.79103 8.99267 -7.06946 
1 -0.0820935 10.6916 -7.19322 
1 -0.131643 8.92082 -8.80933 
1 -0.0335026 12.1746 -8.98233 
1 -1.59716 12.4578 -6.99767 
1 1.36483 9.05538 -10.765 
1 1.83201 10.5575 -9.00191 
1 3.62577 10.8473 -7.24164 
1 3.52832 8.90586 -8.87591 
1 1.76916 8.96338 -7.13683 
1 5.30377 8.84368 -10.5052 
1 5.28499 10.6933 -8.87833 
1 7.10253 10.9088 -7.11604 
1 7.23666 9.16962 -8.93068 
1 5.49211 8.88379 -7.23795 
1 8.80059 8.88825 -7.19191 
2 1.72592 12.4321 -7.36326 
2 -14.1609 3.37306 -3.38225 
1 -14.4044 0.371447 -3.57669 
1 -12.8241 0.181402 -5.4924 
2 -12.6032 3.62349 -5.34201 
1 -12.5043 1.76733 -3.37444 
2 -10.8145 1.88592 -5.28167 
1 -10.7793 3.65761 -3.47714 
1 -8.93011 3.65032 -5.30335 
2 -8.97452 1.87212 -3.42025 
1 -10.8148 0.111129 -3.43738 
1 -7.18596 1.88576 -5.4674 
2 -7.22311 3.67427 -3.49886 
1 -5.35429 3.63112 -5.31734 
1 -5.27815 1.93673 -3.60513 
2 -7.10715 0.0931487 -3.4729 
1 -3.62841 1.7898 -5.27475 
1 -1.89348 3.52523 -5.28451 
1 -3.52416 3.58301 -3.5085 
1 -1.79849 1.70934 -3.56635 
1 -0.0926535 1.79139 -5.32151 
1 -0.0673622 3.56069 -3.61056 
1 -0.142821 0.0274333 -3.54959 
1 -1.8939 0.0441463 -5.42556 
1 3.63116 1.72044 -5.19511 
2 1.79912 3.64647 -5.40085 
1 3.52581 3.51728 -3.48026 
2 1.7641 1.68853 -3.53748 
1 3.53386 -0.0806893 -3.5403 
1 1.75097 -0.0390318 -5.3028 
1 7.01202 1.85219 -5.27256 
1 7.0083 3.57967 -3.55601 
1 5.21516 3.55428 -5.33588 
1 5.39288 1.77171 -3.60957 
1 7.0684 -0.0969798 -3.5893 
1 5.32814 0.0539249 -5.28653 
1 10.6117 1.75608 -5.19144 
1 10.5784 3.53205 -3.50294 
2 8.84117 3.61232 -5.3738 
1 8.72933 1.81727 -3.63218 
1 12.4697 1.63897 -3.63411 
1 12.3251 3.56647 -5.18537 
1 14.1055 3.42109 -3.36933 
1 -12.5164 5.41679 -3.46512 
1 -10.6728 7.24881 -3.44984 
1 -10.8748 5.47391 -5.24593 
2 -8.88388 7.18407 -5.18362 
1 -8.97053 5.51062 -3.47924 
1 -7.0139 7.16762 -3.53341 
1 -7.06493 5.27578 -5.38031 
1 -5.26928 7.14927 -5.31158 
1 -5.22126 5.28256 -3.47785 
1 -1.9782 7.15915 -5.39302 
1 -3.57058 7.16431 -3.58461 
1 -3.65673 5.32183 -5.32332 
1 -1.75235 5.34848 -3.61566 
1 -0.147048 5.37656 -5.32518 
2 0.0288856 7.20982 -3.71725 
1 1.74707 7.2181 -5.4956 
2 3.39159 7.26517 -3.67762 
1 3.50047 5.37001 -5.37007 
1 1.77583 5.4302 -3.61808 
1 7.18819 7.03732 -3.64302 
1 6.8952 5.39531 -5.35494 
2 5.33033 7.22385 -5.36709 
1 5.14348 5.35595 -3.58743 
1 10.498 7.02893 -3.51999 
1 10.6799 5.27809 -5.34959 
1 8.70718 6.96821 -5.41248 
1 8.87682 5.21363 -3.5875 
2 12.3562 5.27192 -3.48135 
1 -10.6723 8.92721 -5.16518 
1 -9.04018 10.8035 -5.20688 
1 -8.80365 9.04447 -3.40347 
1 -10.5613 10.9904 -3.58802 
1 -7.12457 10.8482 -3.50489 
1 -5.39631 10.7615 -5.25181 
1 -7.21843 9.01908 -5.22691 
1 -5.38855 9.16065 -3.55469 
1 -5.34176 12.5786 -3.64076 
1 -1.88639 10.605 -5.39145 
1 -3.6554 10.8802 -3.42792 
2 -3.63485 8.96506 -5.36262 
1 -1.84684 9.05794 -3.51677 
1 -3.48786 12.4803 -5.29656 
1 -0.14371 8.8926 -5.43809 
1 0.00177368 10.7332 -3.61541 
2 1.67518 10.7431 -5.50526 
1 3.53835 10.6517 -3.69181 
1 3.61665 9.06097 -5.69768 
1 1.70316 9.06239 -3.68818 
1 1.74192 12.4171 -3.60209 
1 7.33256 10.9716 -3.60932 
2 5.45867 10.7709 -5.53509 
1 7.17593 8.83618 -5.55561 
2 5.44385 9.04903 -3.70452 
1 10.3357 8.69599 -5.38871 
1 8.85606 10.5972 -5.54023 
1 8.84556 8.93682 -3.57849 
1 -1.73046 12.4405 -3.51527 
1 -0.0748352 12.4138 -5.29334 
1 -3.46924 14.1606 -3.64685 
1 0.106505 14.3505 -3.61835 
1 3.59523 12.526 -5.36913 
2 1.80993 14.1386 -5.35211 
1 3.39553 14.268 -3.65003 
1 5.31294 12.5399 -3.59187 
1 -14.3347 3.56908 -0.114284 
1 -14.4704 1.72944 -1.60246 
1 -14.2315 1.91442 1.85771 
1 -12.3934 0.0543938 -1.70523 
2 -12.5072 3.64855 1.8677 
1 -12.4874 3.68153 -1.74462 
1 -12.5555 1.7401 -0.159594 
2 -10.8033 3.675 0.0210993 
1 -10.7182 1.92335 -1.68957 
1 -10.7947 1.90083 1.89936 
1 -9.01444 3.74726 -1.76036 
1 -9.0162 3.60607 1.82903 
1 -8.89084 1.86411 -0.0341526 
2 -8.97037 0.17158 1.85808 
2 -12.3503 0.14991 1.78148 
1 -10.5484 0.0774658 -0.0490713 
1 -8.97122 0.0464573 -1.65847 
1 -7.17424 3.67582 -0.0779887 
1 -7.16082 1.85243 -1.68468 
1 -7.13041 1.8885 1.71716 
1 -5.28666 3.64091 -1.72271 
1 -5.42962 3.63539 1.74178 
1 -5.37397 1.85695 -0.0125176 
1 -7.27918 0.0615205 0.0269551 
1 -5.41996 0.13868 -1.71006 
2 -5.45289 -0.0795634 1.87157 
2 -3.52253 3.59846 0.0889492 
1 -3.66698 1.75383 -1.73455 
2 -1.86384 3.51367 -1.91354 
1 -3.66276 1.63958 1.71623 
1 -1.88511 3.61934 1.88515 
1 -1.82591 1.76161 -0.0663444 
1 -0.0710474 1.73416 -1.84586 
1 -0.194176 3.64799 -0.00977656 
1 -3.52484 -0.0220302 -0.138956 
1 -1.72835 -0.114315 1.78465 
1 -0.0783854 1.8936 1.57477 
2 3.56548 3.50297 -0.112658 
1 3.64003 1.65058 -1.88072 
2 1.70305 3.59388 -1.87895 
1 3.54041 1.74307 1.87826 
1 1.64936 3.6395 1.75346 
2 1.81597 1.72909 -0.0715055 
2 3.61835 -0.00796613 0.127383 
1 7.19554 3.55726 -0.11998 
1 7.1994 1.73704 -1.80559 
1 7.03 1.83351 1.78955 
1 5.39026 3.51922 -1.90461 
1 5.32545 3.55572 1.93166 
2 5.38772 1.80354 0.000644828 
1 5.42716 -0.0663407 -1.87211 
1 10.6266 3.61336 0.0574603 
1 10.7025 1.86054 1.65906 
2 10.6074 1.72206 -1.89581 
1 8.86567 3.53362 -1.84023 
1 8.8051 3.55332 1.71617 
1 8.87643 1.79455 -0.0342557 
2 8.75292 0.0563719 1.79446 
1 12.3331 3.65959 -1.67157 
1 12.4286 1.86115 0.0335607 
1 10.589 -0.0906992 -0.0340884 
1 12.437 3.54497 1.7018 
1 14.1903 3.76057 -0.201961 
2 14.2957 1.62062 -1.54577 
1 14.3898 2.15381 1.66214 
1 14.4087 0.110778 0.430698 
1 -12.604 5.53233 -0.268813 
1 -12.5007 7.35716 -1.91462 
1 -12.6219 6.88737 1.69677 
1 -10.7384 7.11489 -0.102608 
1 -10.7121 5.43429 -1.77779 
1 -10.68 5.37612 1.84813 
1 -8.85504 7.15469 -1.71692 
2 -9.14226 7.16076 1.76402 
1 -8.93033 5.41391 -0.0289159 
1 -7.16319 7.17949 -0.0801732 
1 -7.07276 5.40034 -1.69582 
2 -5.35214 7.2241 -1.77896 
1 -7.21399 5.35187 1.71549 
1 -5.39742 7.07468 1.75452 
1 -5.38557 5.42959 0.0529476 
1 -3.5912 7.11199 0.018353 
1 -1.89922 7.15704 -1.89069 
1 -1.78001 7.21333 1.91524 
1 -3.57685 5.34722 -1.59185 
1 -3.61263 5.4714 1.86167 
2 -1.72028 5.5554 -0.00984661 
1 0.0230418 5.48787 -1.75626 
1 -0.00672169 5.28318 1.72425 
1 0.0879145 7.19136 0.0227638 
1 3.50516 7.0702 0.0181957 
1 1.84897 7.09766 -1.78628 
2 1.81005 7.19271 1.81367 
1 3.65503 5.39892 -1.7514 
2 3.57249 5.25641 1.85761 
1 1.64904 5.30869 -0.0306632 
1 7.14293 7.07059 0.0240833 
1 7.02612 5.32675 -1.80969 
2 5.25811 7.18348 -1.78653 
1 7.21984 5.391 1.73821 
1 5.36584 7.18644 1.80278 
1 5.41391 5.25142 0.100282 
1 10.5517 7.06794 -0.143461 
1 10.5594 5.28554 1.70937 
1 10.5907 5.40134 -1.73857 
1 8.85643 7.06374 -1.87339 
2 9.00507 7.26559 1.7626 
1 8.82296 5.26695 -0.114794 
2 12.0322 7.22685 1.72754 
1 12.3745 7.02525 -1.67922 
1 12.2998 5.37028 0.102114 
2 -8.96292 10.8252 -1.64657 
1 -8.9332 10.6912 1.63679 
2 -10.6139 9.06138 -1.77453 
1 -10.8642 8.97437 1.67724 
1 -8.98547 8.95783 0.115904 
1 -7.08268 10.7763 0.0938582 
1 -5.36064 10.5977 1.76216 
1 -5.3112 10.7191 -1.68891 
1 -7.14533 8.97312 -1.67962 
1 -7.17364 8.87323 1.75084 
1 -5.32661 8.97165 0.0332539 
1 -7.12637 12.5115 -1.75353 
1 -3.50895 10.7073 -0.0175935 
2 -1.65506 10.7001 1.94023 
1 -1.78716 10.6594 -1.80372 
1 -3.62969 8.88388 -1.82973 
2 -3.55913 8.96676 1.80688 
1 -1.84431 8.82155 -0.0815026 
1 -3.4304 12.5022 -1.76493 
2 0.000778023 8.88198 -1.74604 
1 -0.0412997 8.87965 1.74983 
1 -0.0280152 10.6569 0.0222555 
1 0.0760492 12.3956 1.76299 
1 -1.8047 12.3838 0.0801023 
1 0.0372018 12.5403 -1.63843 
1 3.59498 10.7045 0.18237 
1 1.69529 10.6339 1.85834 
1 1.7343 10.7001 -1.7944 
1 3.43583 8.96962 -1.70782 
1 3.57713 8.9913 1.85697 
1 1.75362 9.02649 0.076003 
2 1.81878 12.4054 0.104502 
1 7.23333 10.5389 -0.116545 
1 5.27953 10.6736 1.75213 
2 5.27288 10.58 -1.76011 
1 7.10822 8.91655 -1.83749 
1 7.1009 8.93932 1.83786 
2 5.32949 8.90116 0.104795 