ITEM: TIMESTEP
1740000
ITEM: NUMBER OF ATOMS
1289
ITEM: BOX BOUNDS pp pp pp
-100 100
-100 100
-100 100
ITEM: ATOMS type x y z 
1 -1.766 -7.03854 -12.62 
1 -3.50139 -5.36995 -12.6573 
1 0.0237112 -5.17279 -12.3095 
1 1.40561 -7.17235 -12.5116 
1 3.17736 -5.26266 -12.722 
1 -7.19779 -1.80604 -12.5911 
2 -5.43168 -3.56042 -12.3105 
2 -1.74788 -1.68793 -14.2852 
2 -3.60691 -1.76306 -12.6324 
1 -1.73485 -3.3999 -12.457 
1 0.00609085 -1.66285 -12.3537 
1 0.172075 -3.49737 -14.1598 
2 3.43628 -2.98116 -14.1043 
1 1.79023 -3.41879 -12.3215 
1 3.52861 -1.75791 -12.1406 
1 1.4346 -1.59461 -14.2268 
2 1.75907 0.0855817 -12.4245 
2 3.536 -0.0865758 -14.2619 
1 5.51662 -1.6388 -14.3312 
2 7.23392 -1.95115 -12.4668 
2 5.21789 -3.58498 -12.5298 
2 5.35841 -0.06509 -12.3955 
1 -1.75803 -12.6084 -7.11192 
1 -8.83545 -9.09733 -7.11741 
2 -5.24023 -10.6361 -8.59003 
1 -5.1532 -8.89466 -10.7474 
1 -7.11125 -8.94761 -8.86385 
1 -5.28635 -8.85077 -7.11884 
1 -7.0462 -10.7836 -7.11216 
1 -1.83209 -10.8305 -9.02518 
1 -1.95276 -9.03522 -10.8848 
1 -3.49846 -10.7282 -6.94495 
2 -3.38207 -8.88757 -8.90706 
1 -1.77258 -8.99868 -6.94839 
1 -0.135234 -8.90947 -9.03831 
2 0.0407965 -10.6526 -7.21251 
1 -0.0730365 -10.5047 -10.7441 
1 1.70911 -12.5424 -7.0419 
1 1.66569 -8.96295 -10.8206 
2 1.64701 -10.8587 -9.00839 
1 3.50622 -10.8547 -7.29638 
2 3.34722 -8.91059 -8.7844 
1 1.78512 -8.93382 -6.95435 
1 5.33435 -10.4447 -8.99524 
1 7.12265 -8.79322 -8.9077 
1 5.23476 -8.85651 -7.22795 
1 6.90979 -10.728 -7.25387 
1 5.18013 -8.81132 -10.812 
1 8.61676 -8.83655 -7.18693 
1 -10.5698 -5.45872 -8.85381 
1 -8.68627 -5.35429 -10.6406 
1 -8.8119 -7.18139 -8.87715 
2 -8.79637 -5.25122 -7.07692 
2 -10.5329 -7.21507 -6.96463 
1 -7.05651 -7.24613 -10.6372 
1 -5.41614 -5.53174 -10.7863 
1 -6.94731 -5.27625 -8.87449 
1 -5.31541 -7.15484 -8.90409 
2 -6.91841 -7.06758 -7.10938 
1 -5.16287 -5.29243 -7.18991 
2 -3.58409 -7.04912 -10.8347 
1 -1.90409 -5.39984 -10.7838 
1 -1.82044 -7.12414 -8.95365 
1 -3.65174 -5.40625 -8.99988 
1 -3.47007 -7.20194 -7.08209 
2 -2.02513 -5.28328 -7.09848 
2 -0.0400002 -7.18258 -7.19695 
1 -0.278458 -7.3252 -10.771 
2 -0.166641 -5.28072 -8.98006 
2 3.30326 -7.10169 -10.8807 
1 1.65068 -5.35479 -10.6162 
1 1.68508 -7.27622 -8.91024 
1 3.60347 -5.29137 -8.88615 
1 3.54722 -7.11986 -7.10369 
2 1.81662 -5.31948 -7.21647 
1 6.89484 -7.00646 -10.6474 
1 5.17429 -5.3819 -10.816 
1 5.22955 -7.13237 -8.88279 
1 7.05545 -5.22116 -8.76099 
1 7.00226 -7.08294 -7.14844 
1 5.22936 -5.3495 -7.22055 
1 8.68454 -5.22454 -10.6815 
1 10.6786 -5.16484 -9.04701 
1 10.6775 -7.15416 -7.11561 
2 8.71662 -6.93717 -8.82151 
1 8.79559 -5.31656 -7.05053 
1 -12.5222 -1.77464 -7.06473 
1 -10.7399 -2.17382 -8.87266 
1 -9.00186 -1.80907 -10.5522 
1 -10.7697 -3.64778 -7.03944 
1 -8.86692 -3.67388 -8.88945 
1 -8.92556 -1.89074 -7.21902 
1 -8.80872 -0.0538945 -8.90998 
1 -10.8133 -0.101947 -7.20374 
1 -7.01397 -3.46961 -10.7152 
1 -5.23389 -1.70259 -10.7167 
1 -6.97818 -1.92091 -8.88855 
1 -5.18708 -3.56341 -8.96091 
1 -6.87263 -3.5894 -7.16728 
1 -5.30815 -1.72683 -7.16221 
1 -7.24662 -0.227289 -10.7094 
1 -7.12321 -0.0126876 -7.18455 
1 -3.61359 0.0556333 -10.7066 
1 -0.0375779 0.113286 -7.08074 
1 -3.59539 -3.58007 -10.7558 
1 -1.86304 -1.65742 -10.6863 
1 -3.50478 -1.6636 -8.93371 
2 -1.97646 -3.45195 -8.92516 
1 -3.7031 -3.38701 -7.10364 
1 -1.73815 -1.68632 -6.97736 
1 0.0210977 -3.3487 -10.5979 
1 -0.0197813 -1.66309 -8.71925 
1 -0.116715 -3.45513 -7.09972 
1 -0.106721 0.144686 -10.6983 
1 3.45579 -3.54925 -10.6139 
1 1.64419 -1.67553 -10.5564 
1 1.64409 -3.53435 -8.90521 
2 3.48516 -1.72989 -8.94379 
1 3.51861 -3.53123 -7.08943 
1 1.84515 -1.71467 -7.21141 
2 1.76823 0.155037 -8.88177 
1 3.54212 0.223326 -10.6787 
1 6.92224 -3.76904 -10.6818 
1 5.36789 -1.89002 -10.7686 
1 7.08822 -1.81805 -8.90856 
1 5.30801 -3.51425 -8.90394 
1 7.07963 -3.57348 -7.03053 
1 5.28674 -1.75319 -7.05335 
2 7.28362 0.0994435 -10.8329 
1 8.81363 -2.12243 -10.7501 
1 10.6947 -3.6874 -7.1248 
1 8.86175 -3.59852 -8.88872 
2 8.87305 -1.80073 -7.12392 
2 10.5856 -1.6863 -9.00272 
1 12.4611 -1.76085 -7.19325 
1 8.77891 0.11744 -8.92453 
1 -1.76692 -14.1622 -5.22602 
1 0.0532853 -12.6312 -5.38625 
2 0.208682 -14.2666 -3.30095 
1 3.51986 -12.4863 -5.43437 
2 2.01601 -12.5413 -3.43356 
1 -10.5863 -9.03975 -5.01537 
1 -8.77506 -10.7875 -5.27319 
2 -8.791 -8.84008 -3.43725 
1 -5.44846 -12.5029 -3.50758 
1 -7.09955 -10.6915 -3.48 
1 -5.36814 -10.6142 -5.29786 
1 -7.06522 -8.90641 -5.31192 
1 -5.35987 -8.84888 -3.49611 
1 -3.77898 -12.5937 -5.07307 
1 -1.76205 -12.4989 -3.34506 
2 -1.83974 -10.8721 -5.18647 
1 -3.76694 -10.624 -3.52396 
1 -3.58177 -8.91741 -5.37384 
2 -1.89012 -8.87839 -3.50537 
1 -0.052422 -8.94007 -5.32119 
2 0.0280268 -10.6988 -3.53084 
1 1.72816 -10.7211 -5.33855 
1 3.60395 -10.6192 -3.69054 
1 3.59551 -8.97108 -5.50432 
1 1.75533 -8.9798 -3.50878 
1 5.0369 -12.5721 -3.52413 
2 6.86835 -10.9905 -3.52486 
1 5.27994 -10.7349 -5.59311 
1 6.99775 -8.92012 -5.45922 
2 5.37914 -8.97565 -3.59115 
1 8.56777 -10.8477 -5.36726 
2 8.78257 -9.01754 -3.6833 
1 10.3292 -9.23977 -5.63865 
1 -12.4458 -5.3129 -3.47007 
1 -10.8908 -7.15895 -3.65463 
1 -10.6707 -5.46564 -5.2569 
2 -8.83705 -6.98828 -5.14796 
1 -8.93923 -5.25911 -3.42315 
1 -7.08143 -7.00548 -3.43829 
1 -7.11194 -5.25415 -5.30056 
1 -5.30307 -7.11987 -5.26103 
1 -5.38508 -5.28037 -3.53023 
1 -1.87303 -7.16595 -5.25929 
1 -3.55365 -7.1357 -3.49027 
1 -3.56395 -5.41977 -5.30161 
1 -1.76803 -5.28724 -3.66081 
2 -0.00577699 -5.28135 -5.38766 
1 -0.0578135 -7.1218 -3.56838 
2 1.79811 -7.18056 -5.19481 
1 3.59754 -7.19211 -3.61636 
1 3.59402 -5.46118 -5.32681 
1 1.64567 -5.45602 -3.504 
1 6.96204 -7.11786 -3.65897 
1 5.30242 -7.26514 -5.47207 
1 7.04651 -5.29723 -5.41634 
1 5.33716 -5.4487 -3.64125 
1 10.5967 -7.10992 -3.76161 
1 10.7357 -5.26223 -5.44093 
2 8.76557 -7.18214 -5.3895 
2 8.79025 -5.28769 -3.61636 
1 12.3918 -5.33523 -3.6342 
1 -14.0418 -3.53408 -3.37578 
1 -12.4992 -3.64812 -5.308 
2 -12.433 -1.71244 -3.57737 
1 -10.7009 -1.80788 -5.44416 
2 -10.7703 -3.63786 -3.37607 
1 -8.90544 -3.58062 -5.19813 
2 -8.97439 -1.77063 -3.4075 
2 -7.13742 -1.78373 -5.36939 
1 -7.11448 -3.52367 -3.48206 
1 -5.24674 -3.5939 -5.36376 
1 -5.30675 -1.8472 -3.45245 
1 -3.65331 -1.70868 -5.3202 
1 -1.8652 -3.41773 -5.40878 
1 -3.66544 -3.52795 -3.58317 
1 -1.85088 -1.70959 -3.62874 
1 -0.0133704 -3.56977 -3.62536 
1 0.0367192 -1.78135 -5.4519 
1 -0.169201 0.069387 -3.73236 
1 -1.91042 0.115725 -5.42065 
1 1.86697 -0.0399077 -5.43519 
1 1.78399 -3.60992 -5.28779 
1 3.62045 -1.76796 -5.40584 
1 3.52826 -3.64579 -3.58919 
2 1.71721 -1.70738 -3.57766 
1 7.02069 -1.77892 -5.32336 
1 6.99013 -3.59887 -3.66592 
1 5.2897 -3.68886 -5.30399 
1 5.30849 -1.77593 -3.63175 
1 10.6904 -1.89121 -5.41847 
1 10.5527 -3.5333 -3.57568 
1 8.86392 -3.62578 -5.33318 
1 8.82861 -1.75351 -3.50703 
1 12.481 -1.7679 -3.55208 
2 12.4051 0.000820201 -5.45861 
2 12.5725 -3.44878 -5.33448 
2 14.1321 -3.47365 -3.38238 
2 14.2925 0.0855744 -3.70563 
2 -7.16603 -12.3221 -1.41031 
1 -1.90395 -14.3282 -1.86387 
1 -3.47392 -14.2655 0.202134 
1 -1.42785 -14.287 1.88648 
1 -3.61976 -12.4521 -1.89245 
1 -0.0397163 -14.4177 -0.14127 
1 2.12796 -14.4167 -1.66874 
1 3.37326 -14.4951 0.383435 
2 1.40614 -14.1014 1.89153 
1 4.77449 -14.4636 -1.75333 
1 -10.645 -10.409 0.108063 
1 -10.7199 -8.80921 -1.82896 
1 -8.98583 -10.712 -1.67101 
1 -8.84357 -8.83028 0.0618822 
2 -10.7892 -8.74915 1.98626 
2 -8.88317 -10.7198 1.73211 
2 -7.04144 -12.3785 1.48677 
1 -5.09945 -12.4633 0.0617231 
1 -7.1067 -10.4615 0.0398805 
2 -5.25176 -10.5599 -1.7106 
2 -5.18524 -10.6572 1.71574 
1 -7.04882 -8.77763 -1.71898 
1 -7.22268 -8.76513 1.80882 
1 -5.29577 -8.74777 0.0543292 
1 -3.34933 -12.44 1.75926 
1 -1.75125 -12.4935 -0.0562954 
1 -3.46113 -10.6591 -0.0461932 
1 -1.85314 -10.5901 -1.65523 
1 -1.91628 -10.535 1.78441 
1 -3.56972 -8.79635 -1.68854 
1 -3.49642 -8.76951 1.76824 
1 -1.75173 -8.86274 -0.0151387 
2 0.0674266 -12.4197 -1.5746 
1 3.57944 -12.4713 1.91152 
1 -0.163663 -12.2209 1.86237 
1 -0.0723935 -8.94425 -1.67321 
1 -0.0749734 -10.5621 0.17607 
1 -0.0211579 -8.75687 1.81678 
2 1.84181 -12.3997 0.0655203 
1 3.59639 -12.4544 -1.58577 
1 3.54724 -10.6792 0.0503234 
1 1.86436 -10.7291 -1.77263 
1 1.84302 -10.7293 1.86822 
1 3.43533 -8.9761 -1.7691 
1 3.49127 -8.92099 1.74607 
1 1.79921 -8.91797 0.0990254 
1 5.2654 -12.8559 0.206062 
2 6.72874 -12.6867 -1.63177 
1 6.99051 -12.4007 1.92666 
1 6.94984 -10.7389 0.00630744 
1 5.16106 -10.7056 -1.73557 
1 5.32433 -10.7418 1.90988 
1 7.07779 -9.05532 -1.80484 
2 7.08726 -8.99197 1.75329 
1 5.23673 -9.0479 0.0764785 
1 8.68357 -12.2923 -0.102909 
1 8.7835 -10.9586 -2.11395 
1 10.721 -9.01554 -2.00486 
1 10.7076 -8.98857 1.63024 
2 8.90463 -9.19272 -0.177543 
1 8.96803 -10.9221 1.82999 
1 -12.7449 -5.42778 0.421337 
1 -12.7406 -6.94648 -1.63346 
2 -10.8305 -7.10872 0.0830408 
1 -10.8938 -5.3279 -1.6897 
1 -10.7285 -5.5826 1.80738 
1 -8.93977 -7.03731 -1.71555 
1 -8.83948 -7.06155 1.79608 
1 -8.97506 -5.38517 -0.122703 
1 -7.15464 -7.04954 -0.0239357 
1 -7.10709 -5.24686 -1.74964 
1 -5.18784 -7.12782 -1.74691 
2 -7.17759 -5.34826 1.71082 
1 -5.41867 -7.09397 1.86211 
1 -5.30856 -5.4594 -0.0404755 
1 -3.49702 -7.12893 0.00489506 
1 -1.82717 -7.13371 -1.795 
1 -1.79521 -7.19834 1.81708 
1 -3.55404 -5.33671 -1.93592 
1 -3.6248 -5.40407 1.76802 
2 -1.83466 -5.36895 0.00812712 
1 -0.0305913 -5.40325 -1.85018 
1 0.0365029 -7.15874 0.0373476 
1 0.0291952 -5.26273 1.80426 
1 3.575 -7.186 -0.00172628 
2 1.78783 -7.19926 -1.77091 
1 1.8798 -7.10096 1.81468 
2 3.58399 -5.37543 -1.73747 
1 3.57854 -5.45214 1.82723 
1 1.64574 -5.47004 -0.0479319 
1 7.10151 -7.30111 -0.189206 
1 5.37173 -7.24276 -1.74958 
1 7.04415 -5.41244 -1.80667 
1 5.34903 -7.07879 1.63019 
2 7.11481 -5.35036 1.68634 
1 5.27469 -5.46163 -0.0975334 
1 10.6798 -7.19105 -0.23778 
1 10.5453 -5.45017 1.51478 
1 10.6692 -5.43864 -1.83888 
1 8.75561 -7.15387 -1.94814 
1 8.8645 -7.28392 1.48024 
1 8.85779 -5.3881 -0.211156 
1 12.5614 -7.26849 1.50903 
1 12.447 -7.34205 -1.99243 
2 12.5276 -5.37135 -0.244362 
1 -14.1434 -3.43343 0.294884 
2 -14.091 -1.71009 -1.70908 
1 -14.2682 -1.64554 1.85855 
1 -12.5916 -3.73626 -1.54372 
1 -12.3538 -3.48206 1.91879 
1 -12.3561 -1.73359 0.0818418 
1 -10.899 -3.68149 0.0369917 
1 -10.871 -1.8057 -1.62882 
1 -10.6952 -1.76743 1.86481 
1 -8.88606 -3.51573 -1.61615 
2 -9.13499 -3.49405 1.75376 
1 -8.87266 -1.66637 -0.0429362 
2 -9.00578 0.138266 1.81925 
1 -7.23001 -3.5274 -0.0373411 
1 -7.13082 -1.70159 -1.65084 
1 -7.16973 -1.67088 1.67037 
1 -5.29974 -3.60236 -1.72074 
2 -5.29911 -3.55386 1.695 
2 -5.27148 -1.7052 -0.0787024 
1 -5.29463 0.0670698 -1.69269 
1 -3.45386 -3.55907 -0.0630778 
1 -3.45541 -1.83581 -1.76156 
2 -1.73919 -3.60338 -1.89987 
2 -3.48144 -1.7724 1.75897 
1 -1.75761 -3.58906 1.8192 
1 -1.69683 -1.69264 -0.00255724 
1 0.03323 -3.52985 -0.0419312 
1 -0.091923 -1.73105 -1.78542 
1 0.0687374 -1.90393 1.87372 
1 -1.87018 0.0991422 -1.69525 
1 -1.65045 -0.0815928 1.69908 
2 3.58818 -3.62738 0.135444 
2 1.76065 -3.60373 -1.80059 
1 3.61525 -1.82302 -1.86479 
1 1.78447 -3.52514 1.82235 
1 3.5063 -1.69 1.92657 
1 1.80912 -1.86392 0.0772443 
2 1.76326 0.0867544 1.85077 
1 1.82531 -0.0717268 -1.80046 
1 7.06636 -3.61615 -0.0479034 
1 7.05001 -1.75567 -1.86397 
1 7.18772 -1.85256 1.71889 
1 5.36695 -3.63405 -1.82713 
1 5.29023 -3.60083 1.84223 
2 5.4552 -1.74556 0.0701638 
1 7.12414 -0.0575619 0.0651941 
1 10.6578 -3.48842 -0.185345 
1 10.8507 -1.95312 1.67051 
1 10.7308 -1.80922 -1.83093 
1 8.77672 -3.55049 -1.808 
1 8.93563 -3.57415 1.59905 
2 8.89025 -1.8176 -0.201819 
1 12.2461 -3.56885 -1.94704 
1 8.88594 0.063372 -1.85117 
2 12.5351 -3.74376 1.57511 
1 12.504 -1.75817 -0.1167 
2 14.2358 -3.52022 -0.338758 
1 14.4636 -1.54007 -1.90166 
1 14.3997 -1.83703 1.59943 
2 12.4292 -0.133149 -1.88395 
1 14.3018 -0.00586372 0.000345177 
2 -5.23928 -12.4446 3.54634 
2 -3.14643 -13.9969 3.6109 
1 -0.217172 -14.0047 3.85617 
2 -3.42809 -12.4249 5.43143 
1 3.35826 -14.1107 3.65396 
1 -10.6288 -10.6919 3.41041 
1 -10.7125 -9.07962 5.32926 
2 -8.7996 -8.92588 3.63991 
2 -8.66701 -10.7373 5.22464 
1 -7.04855 -10.7869 3.4355 
1 -5.46847 -10.7875 5.4215 
1 -7.0252 -8.93605 5.51439 
2 -5.38426 -8.88179 3.70041 
1 -1.73917 -12.1176 3.67987 
1 -1.65666 -10.5621 5.44941 
1 -3.59082 -10.6233 3.661 
2 -3.46698 -8.93104 5.49013 
1 -1.79602 -8.99007 3.66028 
1 0.0827481 -8.76207 5.44066 
1 3.37008 -12.5841 5.57735 
2 -0.120225 -12.2413 5.36669 
1 0.0553129 -10.4614 3.55717 
1 1.69955 -12.3585 3.72449 
1 1.80437 -10.4656 5.52865 
2 3.57222 -10.7621 3.79753 
1 3.62453 -8.86533 5.48462 
1 1.71554 -8.9289 3.58209 
1 5.19126 -12.5423 3.63458 
1 7.12994 -10.8446 3.76864 
1 5.31224 -10.8599 5.57948 
2 7.10213 -8.83444 5.41197 
2 5.33936 -8.91145 3.57303 
1 9.12133 -10.4335 5.37685 
2 8.95824 -8.93324 3.49698 
1 -12.5423 -5.58359 3.31125 
1 -10.7449 -7.15411 3.83583 
1 -10.8109 -5.45259 5.34297 
1 -8.79773 -7.21245 5.4962 
1 -8.90038 -5.43352 3.69468 
1 -7.08451 -7.12708 3.70373 
1 -7.17721 -5.37082 5.39736 
1 -5.36699 -7.06878 5.47494 
2 -5.25618 -5.34045 3.78262 
1 -1.76264 -7.15244 5.43322 
1 -3.52224 -7.22329 3.68087 
1 -3.59474 -5.36307 5.5776 
2 -1.79349 -5.4917 3.68631 
1 0.0240499 -7.17446 3.61556 
2 0.0810797 -5.34909 5.39912 
1 1.91916 -7.12868 5.33076 
1 3.55134 -7.18753 3.58807 
1 3.54625 -5.37029 5.31905 
1 1.85926 -5.43954 3.50132 
1 7.2287 -7.18735 3.4882 
1 5.28831 -7.14728 5.45485 
2 7.06853 -5.21135 5.29567 
2 5.29151 -5.42777 3.50023 
2 10.7106 -8.35781 5.32731 
1 10.6913 -7.18817 3.16759 
1 10.6863 -5.46259 5.18199 
1 8.80988 -6.98135 5.37554 
1 8.96427 -5.48741 3.34026 
2 12.4437 -5.48644 3.32295 
1 -14.0979 -3.65053 3.34782 
1 -12.6648 -3.75619 5.31867 
1 -12.4964 -1.85982 3.68181 
1 -10.7513 -1.8899 5.36593 
1 -10.8351 -3.59959 3.65512 
1 -8.99476 -3.51217 5.37307 
2 -8.89686 -1.66814 3.6228 
1 -12.4876 -0.0647695 5.44517 
1 -10.7242 -0.0302996 3.77271 
1 -7.18761 -1.68846 5.46372 
2 -7.22765 -3.54586 3.6343 
1 -5.35859 -3.52246 5.46435 
1 -5.50783 -1.75601 3.55471 
1 -7.28884 0.110563 3.60227 
2 -3.6396 -1.65922 5.24718 
2 -1.75787 -3.54196 5.3758 
1 -3.60861 -3.50068 3.57423 
1 -1.6583 -1.79369 3.5135 
1 0.0618453 -1.81792 5.32343 
1 0.119906 -3.56907 3.71404 
1 1.81446 -0.0223829 5.28844 
1 -0.0584176 0.00851362 3.58548 
1 1.86425 -3.55494 5.28293 
1 3.61719 -1.78501 5.29078 
1 3.50349 -3.58421 3.6107 
1 1.84007 -1.70448 3.58229 
1 7.20003 -1.82671 5.26803 
1 7.18611 -3.51236 3.42993 
1 5.31136 -3.48607 5.14876 
1 5.35775 -1.81219 3.48346 
2 7.21733 -0.112449 3.60766 
2 10.8763 -1.90105 5.21181 
1 10.7021 -3.70899 3.46364 
2 8.95469 -3.59209 5.27661 
1 9.03182 -1.91281 3.41857 
1 8.93187 -0.153666 5.28425 
2 14.0736 -0.0967549 3.16025 
2 12.5479 -2.04325 3.42557 
1 12.6679 -3.91299 5.26615 
1 14.46 -3.63743 3.41025 
1 14.2941 -1.74734 5.23404 
1 -8.8969 -9.0205 7.03148 
1 -5.43773 -8.94057 10.6552 
1 -5.36386 -10.6495 8.91286 
1 -7.09206 -10.7648 7.24329 
2 -7.20517 -8.80443 8.80914 
1 -5.27761 -8.78461 7.07404 
1 -1.67374 -12.3186 7.21233 
2 -1.69896 -8.87504 10.7759 
1 -1.9652 -10.8028 8.96149 
1 -3.62204 -10.7578 7.15177 
1 -3.59681 -8.89596 8.96427 
1 -1.81045 -8.98433 7.33457 
1 -0.03467 -8.93934 9.08768 
1 -0.0164945 -10.4699 7.23728 
1 1.51914 -12.4097 7.12692 
1 1.85714 -10.504 8.88078 
1 3.57353 -10.8048 7.27183 
1 3.52376 -8.9368 8.95687 
1 1.848 -8.7342 7.24691 
1 1.8727 -8.91774 10.9224 
1 7.18514 -10.669 6.99217 
1 5.31761 -8.97729 10.4472 
1 5.36663 -10.7304 8.80099 
1 7.27941 -8.93984 8.77104 
1 5.34115 -8.86717 7.28668 
1 9.09265 -8.70004 7.09214 
2 -10.4858 -7.24651 7.10038 
1 -10.8329 -5.50098 8.9409 
1 -8.97652 -7.17966 8.85018 
1 -8.88778 -5.30404 7.20695 
1 -9.07308 -5.39589 10.5664 
1 -7.34952 -7.10386 10.4995 
1 -7.24841 -5.36638 8.93882 
1 -5.37761 -7.12045 8.9644 
1 -7.08831 -7.01592 7.06133 
1 -5.4852 -5.18328 7.22092 
1 -5.57737 -5.4274 10.744 
2 -3.70203 -7.30467 10.9406 
1 -1.9932 -5.43105 10.8308 
1 -1.84807 -7.1378 8.91526 
2 -3.60937 -5.3381 8.92635 
1 -3.62849 -7.01233 7.19424 
1 -1.78196 -5.27862 7.20931 
2 -0.0267467 -5.4282 9.12137 
1 -0.0714459 -7.2426 10.6784 
1 -0.071055 -7.10625 7.21987 
1 3.61128 -7.2709 10.9257 
1 1.82337 -5.3663 10.6559 
1 1.7538 -7.2357 9.11526 
1 3.66343 -5.43995 9.10678 
1 3.61624 -7.12246 7.24675 
2 1.94883 -5.45421 7.26833 
1 6.96631 -7.08045 10.629 
1 5.46198 -5.30779 10.6846 
1 5.40132 -7.15875 8.97381 
1 7.13987 -5.37216 8.92405 
1 7.11154 -7.04448 7.1588 
2 5.26285 -5.28106 7.23165 
1 8.8318 -5.29855 10.738 
1 10.7892 -5.17068 9.0488 
1 10.747 -6.74532 7.19887 
1 8.96152 -6.91224 8.85866 
1 8.89369 -5.19762 7.20122 
2 -12.375 -1.73637 7.12653 
1 -9.30865 -1.79096 10.4106 
1 -11.2077 -3.17022 9.3687 
2 -10.6678 -3.65713 7.05025 
1 -8.95934 -3.65741 9.01032 
2 -9.06695 -1.67268 7.29128 
1 -11.3824 -0.703452 9.15372 
1 -7.42656 -3.50593 10.8423 
1 -5.52218 -1.76934 10.6427 
1 -7.19311 -1.73175 8.98434 
2 -5.52522 -3.53056 9.06415 
1 -7.18921 -3.50543 7.12311 
1 -5.47754 -1.79211 7.1868 
1 -5.385 -0.070355 8.90802 
1 -3.5574 -3.44581 10.6982 
1 -1.77118 -1.78463 10.7537 
1 -3.62316 -1.76309 8.95957 
2 -1.78589 -3.516 9.03912 
1 -3.60192 -3.41454 7.18857 
1 -1.84874 -1.70676 7.18166 
1 -0.0805059 -3.42551 10.7354 
1 -1.82933 -0.0192182 8.98822 
1 -3.588 -0.059806 10.6248 
2 0.167091 -3.48792 7.17306 
1 0.0178681 -1.76271 8.92696 
1 1.80643 -1.71351 7.2133 
2 3.53038 -3.43053 7.19003 
1 1.7968 -1.82762 10.7975 
1 1.81701 -3.45535 9.11458 
1 3.6135 -1.75822 9.03786 
1 3.60603 -3.56496 10.7517 
1 3.49222 -0.0304687 6.95705 
1 3.46918 -0.128407 10.87 
1 5.31003 -0.122845 8.86624 
1 7.20066 -0.0166768 6.94586 
1 7.04897 -0.0765309 10.7469 
1 7.10653 -1.827 8.77414 
1 5.45091 -3.48517 9.03675 
1 7.18762 -3.48051 10.7304 
1 5.31833 -1.75764 7.1943 
1 7.12357 -3.50441 7.12119 
1 5.38105 -1.64477 10.757 
2 10.6063 -0.106923 7.11491 
1 10.8101 -3.76827 7.12211 
1 8.94706 -1.8083 10.5929 
2 10.6283 -2.09054 8.86434 
1 8.86353 -3.6302 8.878 
1 8.84391 -1.92335 7.10631 
2 12.6096 -2.0506 7.07093 
1 -0.133648 -8.51302 12.6876 
1 -0.108491 -5.29819 12.1973 
1 -1.95155 -6.93509 12.7529 
1 -3.9068 -5.35233 12.5272 
1 3.84957 -5.28216 12.5112 
1 2.00804 -5.15314 14.2366 
1 0.0382306 -6.42068 14.1771 
2 1.80844 -6.87787 12.4874 
1 -5.59266 -3.46435 12.4721 
1 -7.41009 -1.52515 12.1054 
1 -5.52181 -0.240943 12.573 
1 -1.77681 -0.179623 12.4336 
1 -3.52829 -0.231876 14.1998 
1 -1.98509 -3.59229 12.4783 
1 -1.71471 -1.73009 14.2711 
1 -3.70868 -1.80262 12.4118 
2 -0.152332 -3.77934 14.063 
1 -0.00584876 -1.85183 12.5047 
1 0.124177 -0.169189 14.1912 
1 1.90593 -2.10126 14.1028 
1 1.81109 -3.69995 12.2775 
1 3.5367 -1.87295 12.4944 
1 3.30331 -0.0683097 14.1169 
1 1.73701 -0.235236 12.4733 
1 5.21448 -0.175001 12.6652 
1 7.25919 -1.70986 12.3842 
2 5.30213 -3.39866 12.3359 
1 -7.18086 1.59 -12.1644 
1 -5.72395 3.60323 -12.6138 
1 -5.40543 0.0538398 -12.5099 
2 -1.8161 1.79022 -14.439 
2 -3.75839 1.86557 -12.659 
1 -1.97417 3.72364 -12.456 
1 -0.0739565 3.49515 -14.2403 
2 0.0114689 1.96998 -12.3899 
1 -3.61771 0.150361 -14.4778 
2 -1.7733 0.0429451 -12.4795 
1 3.77113 3.74167 -14.2007 
1 3.5828 1.88489 -12.45 
2 1.86241 3.73399 -12.4066 
1 1.91828 2.06285 -14.3445 
2 -0.0672275 0.165713 -14.522 
1 5.25243 1.64014 -14.1739 
1 7.23191 1.93654 -12.6468 
1 5.36694 3.69299 -12.4576 
1 8.77633 2.09326 -10.7643 
1 -1.88286 7.11561 -12.5973 
1 -3.78808 5.44416 -12.5957 
1 -0.078141 5.35354 -12.4915 
1 1.68373 7.04601 -12.5543 
1 3.6041 5.43949 -12.4297 
1 -12.4165 1.5993 -7.3155 
1 -11.2038 2.72006 -9.37149 
1 -9.25042 1.69033 -10.758 
2 -8.87792 3.80848 -8.9112 
2 -9.14282 1.86833 -7.31112 
1 -10.947 3.84223 -7.2081 
1 -10.9371 0.318299 -9.72349 
1 -7.27752 3.68553 -10.7325 
2 -5.29501 1.89715 -10.6548 
2 -7.23 1.76572 -9.01169 
1 -5.5598 3.76942 -8.89062 
1 -7.18271 3.78743 -7.11024 
2 -5.24156 1.76676 -7.25192 
1 -5.32684 -0.0332723 -9.01106 
1 -3.69345 3.80238 -10.7684 
1 -1.86838 1.91795 -10.804 
1 -3.54889 1.82298 -9.02913 
2 -1.94419 3.68742 -9.03535 
2 -3.55914 3.77384 -7.09719 
1 -1.71846 1.80016 -7.0841 
1 -0.0556292 3.69354 -7.09641 
1 -0.204288 1.84241 -9.06471 
1 -0.0236389 3.77332 -10.7579 
1 -3.54239 0.0207636 -7.08299 
1 -1.8285 0.0602486 -8.86214 
1 3.59941 3.58838 -10.6982 
1 1.87153 1.83314 -10.6909 
1 3.71601 1.95123 -8.8714 
2 1.81277 3.67648 -8.9494 
1 3.48758 3.6214 -7.08535 
2 1.68871 1.83817 -6.98968 
1 3.68998 0.0340989 -7.08837 
2 7.01674 3.78782 -10.7498 
1 5.42619 1.97804 -10.8781 
1 7.13953 1.92171 -8.9895 
1 5.33104 3.73274 -8.9375 
1 7.07341 3.67772 -7.13434 
1 5.43012 1.86688 -7.13572 
2 5.3027 0.0703101 -9.05782 
2 7.06703 -0.0214209 -7.0485 
2 10.561 1.99111 -8.97231 
1 8.69822 3.68185 -8.76833 
1 8.789 1.78377 -7.18528 
1 10.6058 3.59504 -7.07332 
2 12.3636 1.8259 -7.1236 
2 10.5526 0.0507322 -7.13834 
1 10.0063 0.0473306 -10.9449 
1 -10.6282 5.4592 -9.05493 
1 -10.7746 7.17271 -7.12139 
1 -9.00715 7.44577 -8.95362 
1 -8.91625 5.46637 -7.02979 
1 -8.92039 5.59215 -10.7202 
2 -5.56107 5.57424 -10.7843 
1 -7.15903 7.47152 -10.7064 
1 -7.147 5.62912 -8.89163 
1 -5.46527 7.44701 -8.85655 
2 -7.28533 7.35237 -7.12927 
1 -5.44322 5.62412 -7.01357 
2 -3.67272 7.21574 -10.8909 
1 -1.89476 5.48962 -10.7533 
1 -1.82485 7.24424 -8.8044 
2 -3.78759 5.56131 -9.01078 
1 -3.5209 7.11961 -7.03702 
1 -1.80958 5.50058 -7.04383 
1 -0.150666 7.26416 -10.907 
2 -0.134889 5.39347 -8.95 
1 -0.0401866 7.25471 -7.03126 
1 3.53025 7.29621 -10.5455 
1 1.70129 5.58188 -10.6963 
2 1.72334 7.3432 -8.90442 
1 3.5243 5.40679 -8.8368 
1 3.48391 7.38035 -7.0915 
1 1.72071 5.53544 -7.1254 
1 7.04706 6.98581 -10.4914 
1 5.1212 5.51767 -10.6392 
1 7.01517 5.43338 -8.82104 
1 5.28873 7.26768 -8.72656 
1 7.16249 7.18017 -7.09529 
1 5.19701 5.54437 -7.18835 
1 8.81537 5.35613 -10.645 
1 10.6744 5.38694 -8.72991 
1 8.83686 6.97247 -8.94632 
1 8.83675 5.40202 -6.99271 
2 10.5881 7.1271 -7.00433 
1 -9.26982 9.17713 -7.21421 
1 -5.29721 9.17598 -10.5624 
1 -5.24416 10.9083 -8.68656 
1 -7.22984 9.17516 -9.02496 
1 -5.39382 9.02249 -7.00859 
1 -7.24807 10.6766 -6.94823 
2 -1.89472 8.99856 -10.5588 
2 -1.99199 10.7934 -8.80794 
1 -3.66413 10.8139 -6.98412 
1 -3.60866 8.99073 -8.80636 
1 -1.86982 9.04294 -7.07764 
1 -0.135688 9.1216 -8.89548 
1 -0.0314134 10.7583 -7.1167 
1 -0.0634837 12.3434 -8.92666 
1 1.61319 8.94456 -10.7701 
1 1.74207 10.6784 -8.87162 
1 3.57074 10.9132 -7.21582 
1 3.55643 9.05166 -8.86184 
1 1.78099 9.12934 -7.05845 
1 5.38658 8.86437 -10.5013 
1 5.46282 10.7201 -8.86197 
1 7.20876 10.7307 -7.25518 
1 7.175 8.91747 -8.87271 
1 5.34651 9.03216 -7.12828 
1 8.97005 9.00776 -7.22184 
1 -1.81149 12.558 -7.12559 
2 1.68516 12.5998 -7.23106 
2 -14.1518 3.41168 -3.40781 
2 -12.6361 3.58356 -5.3384 
1 -14.3307 0.186545 -3.34491 
1 -12.6257 0.107096 -5.34711 
1 -12.4576 1.73525 -3.46205 
2 -10.8481 1.91838 -5.41106 
1 -10.8117 3.64327 -3.50836 
1 -9.01461 3.58588 -5.43379 
2 -9.02924 1.77878 -3.50505 
1 -10.7492 -0.0863163 -3.40171 
2 -9.13546 -0.0818895 -5.42613 
1 -7.20359 1.80486 -5.48355 
2 -7.18999 3.62717 -3.51746 
1 -5.37808 3.73138 -5.35656 
1 -5.31911 1.89364 -3.57389 
2 -7.09056 0.0573219 -3.45491 
1 -5.33339 -0.00920384 -5.31588 
1 -3.61098 1.86144 -5.28658 
1 -1.76996 3.65762 -5.34137 
1 -3.65943 3.58904 -3.68973 
1 -1.83012 1.91543 -3.60475 
1 -0.0336291 3.70508 -3.64435 
1 -0.0928047 1.99367 -5.39672 
1 -3.57267 0.0276935 -3.55492 
1 3.6275 1.90466 -5.34708 
2 1.73791 3.76727 -5.32336 
1 3.62431 3.56948 -3.58989 
2 1.76493 1.68948 -3.73874 
1 3.64051 -0.0521898 -3.56692 
1 5.23246 0.0439689 -5.20756 
1 7.10121 0.142233 -3.56383 
1 6.97345 1.80988 -5.37502 
1 7.02999 3.58863 -3.56159 
1 5.23862 3.68873 -5.50419 
1 5.3652 1.81662 -3.59743 
1 10.5345 1.76733 -5.43592 
1 10.6666 3.46111 -3.68213 
2 8.76508 3.5533 -5.27813 
1 8.85591 1.76162 -3.5258 
1 12.4026 1.70257 -3.72747 
1 12.5007 3.49274 -5.32435 
1 8.81911 0.0144952 -5.30194 
1 10.568 -0.0613817 -3.6196 
1 14.2777 3.43301 -3.56477 
1 -12.5935 5.4348 -3.47425 
1 -10.8077 7.14148 -3.42828 
1 -10.885 5.47564 -5.33751 
2 -9.09843 7.15514 -5.20388 
1 -9.06257 5.32062 -3.63409 
1 -7.26424 7.07831 -3.4794 
1 -7.26686 5.37267 -5.30351 
1 -5.49166 7.20345 -5.25639 
1 -5.45096 5.46858 -3.61799 
1 -1.7803 7.20485 -5.34742 
1 -3.66232 7.17604 -3.56095 
1 -3.55413 5.50884 -5.26379 
1 -1.80703 5.45764 -3.54715 
1 -0.0786229 5.5103 -5.38066 
2 0.0190229 7.27845 -3.56659 
1 1.6821 7.15758 -5.43283 
2 3.518 7.35823 -3.60795 
1 3.62692 5.49497 -5.35043 
1 1.78579 5.47416 -3.58174 
1 7.21866 7.21905 -3.68699 
1 7.06252 5.449 -5.36288 
2 5.30471 7.2734 -5.43952 
1 5.35178 5.43314 -3.58695 
1 10.7239 7.0334 -3.5734 
1 10.6558 5.35264 -5.29246 
1 8.94719 7.21741 -5.32617 
1 8.71979 5.30693 -3.57948 
2 12.3417 5.29246 -3.51427 
1 -10.9273 8.83098 -5.11379 
1 -9.06545 10.4885 -5.17325 
1 -9.06461 8.91398 -3.31584 
1 -10.7019 10.702 -3.43867 
1 -7.23276 10.6979 -3.62731 
1 -5.36005 10.7904 -5.25044 
1 -7.26936 8.96533 -5.26067 
1 -5.42156 8.94139 -3.52964 
1 -1.74443 10.7093 -5.33799 
1 -3.45542 10.5942 -3.53009 
2 -3.6244 8.91124 -5.34444 
1 -1.75806 8.91233 -3.62898 
1 -0.101376 9.02611 -5.40894 
1 -0.0318852 10.6955 -3.52346 
1 -1.79812 12.3659 -3.48511 
2 1.74195 10.8842 -5.35313 
1 3.50064 10.8518 -3.54566 
1 3.44212 9.20531 -5.4432 
1 1.70007 9.02585 -3.58355 
1 3.50359 12.5723 -5.22622 
1 7.25181 11.13 -3.6317 
2 5.40882 10.966 -5.41116 
1 7.20638 9.05631 -5.46698 
2 5.56205 9.22334 -3.71428 
1 5.37423 12.6921 -3.65517 
1 10.794 8.8731 -5.24811 
1 8.8988 10.4667 -5.28612 
1 8.91878 9.07295 -3.58203 
1 -5.26185 12.5178 -3.54537 
1 -3.43657 12.4732 -5.198 
1 -0.156876 12.4446 -5.30042 
1 -3.32799 14.2035 -3.37296 
1 -0.107006 14.2492 -3.57789 
1 1.61178 12.4635 -3.50298 
2 1.62164 14.1113 -5.3136 
1 3.33108 14.3889 -3.47481 
1 -14.4245 3.54714 -0.0417491 
1 -14.1904 1.70979 -1.5027 
1 -14.3071 1.72474 1.85304 
1 -14.4483 -0.0557503 0.0794502 
1 -12.588 1.8903 0.237134 
1 -12.4845 0.0468184 -1.52663 
2 -12.3675 0.0295063 1.83203 
1 -12.5494 3.54485 -1.68315 
2 -12.6729 3.58398 2.00188 
2 -10.7275 3.58935 0.106682 
1 -10.8186 1.87422 -1.6567 
1 -10.7471 1.94975 1.92352 
1 -8.93547 3.60052 -1.83248 
1 -8.89183 3.54928 1.76225 
1 -8.92358 1.85273 -0.0504426 
1 -10.7462 0.0636404 0.0190931 
1 -9.08958 -0.0501359 -1.7784 
2 -5.44164 0.18244 1.82494 
1 -7.15428 3.56032 -0.0425181 
1 -7.11109 1.76993 -1.80533 
1 -7.20378 1.94687 1.87165 
1 -5.47729 3.62923 -1.81496 
1 -5.42929 3.53752 1.80621 
1 -5.49519 1.80961 -0.02549 
1 -7.1676 0.0964458 0.0030478 
2 -3.64977 3.53058 0.0408489 
1 -3.66801 1.79149 -1.74718 
2 -1.83556 3.62368 -1.83792 
1 -3.5406 1.82746 1.86163 
1 -1.85428 3.70751 1.75552 
1 -1.81789 1.81409 0.0273277 
1 -3.51335 0.0915077 0.0896979 
1 -0.129139 1.76802 -1.87663 
1 -0.0563232 1.92357 1.66798 
1 -0.0263563 3.64645 -0.00436632 
1 0.0398653 -0.0255219 -0.0117113 
2 3.51116 3.68224 -0.197381 
1 3.5997 1.78407 -1.84935 
2 1.73933 3.62536 -1.91778 
1 3.64423 1.90046 1.80084 
1 1.7817 3.663 1.66261 
2 1.6259 1.87751 -0.121713 
2 3.57139 0.0403928 0.0759546 
1 7.16624 3.62721 -0.0746011 
1 7.03768 1.84627 -1.75586 
1 7.26659 1.82694 1.83382 
1 5.35767 3.54823 -1.86863 
1 5.60196 3.6475 1.71107 
2 5.4178 1.73178 0.0285337 
1 5.31665 0.117885 -1.9182 
1 5.39403 0.0690954 1.89034 
1 10.705 3.57453 -0.0522579 
1 10.8011 1.77482 1.66653 
2 10.7494 1.76344 -1.80768 
1 8.90767 3.53895 -1.88342 
1 8.96123 3.49112 1.66359 
1 8.88499 1.8096 -0.0771475 
2 8.99935 -0.00871032 1.76434 
1 10.5966 -0.0240506 -0.0846552 
1 12.4728 1.82425 0.00956681 
1 12.4141 3.62157 -1.79874 
1 12.4581 3.56793 1.67772 
1 14.1199 3.76149 -0.0862236 
2 14.241 1.76789 -1.7945 
1 14.2241 1.89932 1.60306 
1 12.4084 -0.0159201 1.49412 
1 -12.5772 7.01339 -1.45792 
1 -12.6824 5.35879 0.0668841 
1 -12.4965 6.99678 1.86086 
1 -10.7251 7.07136 0.133697 
1 -10.8506 5.42146 -1.68502 
1 -10.7018 5.34153 1.85374 
1 -8.99542 6.98985 -1.74233 
2 -8.9255 7.08756 1.85673 
1 -8.93103 5.42125 0.0705806 
1 -7.19027 7.10524 0.119578 
1 -7.16561 5.33542 -1.71533 
2 -5.3508 7.2266 -1.77431 
1 -7.20962 5.27701 1.79385 
1 -5.34023 7.10686 1.84444 
1 -5.38138 5.44595 0.111045 
1 -3.69294 7.21889 0.00226947 
1 -1.91093 7.21087 -1.84106 
1 -1.73369 7.10423 1.89465 
1 -3.70942 5.33557 -1.80934 
1 -3.6372 5.36051 1.79442 
2 -1.79627 5.61252 -0.0685903 
1 -0.0412167 5.55207 -1.74855 
1 0.0206783 7.22919 0.0827965 
1 0.0416745 5.46482 1.84791 
1 3.62873 7.05798 0.00163348 
1 1.79398 7.1959 -1.68468 
2 1.84288 7.18793 1.72312 
1 3.50235 5.44101 -1.84629 
2 3.69722 5.36193 1.79621 
1 1.75924 5.4003 -0.0200086 
1 7.23539 7.15639 0.110988 
1 7.17574 5.33474 -1.68851 
2 5.44099 7.08103 -1.87796 
1 7.19623 5.36207 1.79019 
1 5.40105 7.10944 1.78401 
1 5.36479 5.42748 -0.112377 
1 10.6529 7.10307 -0.278939 
1 10.7289 5.25123 1.70169 
1 10.5793 5.28683 -1.85761 
1 8.78949 7.12093 -1.92667 
2 9.24967 7.31021 1.80018 
1 8.91272 5.32826 0.0483305 
2 12.1017 7.23762 1.76481 
1 12.3558 5.38663 -0.0180809 
1 12.4756 7.10369 -1.79497 
2 -8.99415 10.6631 -1.54557 
1 -8.94527 10.6345 1.68837 
2 -10.8368 8.84883 -1.6468 
1 -10.7685 8.94759 1.76559 
1 -8.99872 8.84256 0.0301078 
1 -7.17088 10.6199 0.181315 
1 -5.43197 10.5439 1.85325 
1 -5.38879 10.6357 -1.76723 
1 -7.25311 8.831 -1.72076 
1 -7.15557 8.90879 1.89002 
1 -5.52344 8.98173 0.1681 
1 -7.2643 12.4383 -1.70849 
2 -5.59608 12.3871 0.228756 
1 -3.79368 10.9038 0.0303125 
2 -1.74462 10.7473 1.75302 
1 -1.84501 10.7332 -1.69941 
1 -3.73165 9.11719 -1.70581 
2 -3.53462 9.03177 1.7908 
1 -1.84653 8.86755 -0.133473 
1 0.0184403 10.7327 0.0216169 
1 -0.0168428 9.0777 1.70531 
2 -0.0333451 9.00428 -1.65437 
1 -1.6697 12.507 -0.0536104 
1 -3.58984 12.4306 -1.69871 
1 3.68754 10.8172 0.0196792 
1 1.74041 10.6592 1.73827 
1 1.85379 10.5533 -1.82309 
1 3.69033 8.9598 -1.76776 
1 3.70623 8.96204 1.74888 
1 1.95053 9.04601 -0.0392022 
2 1.8196 12.4447 0.0580743 
1 3.62078 12.4051 1.80398 
1 7.17167 10.7445 -0.0109577 
1 5.31933 10.5621 1.85663 
2 5.46288 10.8425 -1.71821 
1 7.1826 8.95468 -1.81745 