ITEM: TIMESTEP
1490000
ITEM: NUMBER OF ATOMS
1289
ITEM: BOX BOUNDS pp pp pp
-100 100
-100 100
-100 100
ITEM: ATOMS type x y z 
1 -1.71646 -7.01329 -12.4265 
1 -3.66706 -5.28154 -12.5741 
1 -0.10219 -5.31179 -12.6428 
1 1.76496 -6.98835 -12.5525 
1 3.36396 -5.20505 -12.6264 
1 -7.30082 -1.73129 -12.4632 
2 -5.54984 -3.46076 -12.2612 
1 -5.47962 0.12892 -12.4096 
2 -1.82264 -1.65179 -14.2911 
2 -3.90166 -1.76177 -12.5605 
1 -1.90956 -3.50022 -12.5425 
2 -1.94726 0.105575 -12.4813 
1 -0.146923 -3.53814 -14.1938 
1 -0.1048 -1.77203 -12.4928 
2 3.11785 -3.16659 -14.3194 
1 1.53647 -3.51396 -12.5426 
1 3.41952 -1.70865 -12.4428 
1 1.39837 -1.68601 -14.4182 
2 1.5609 -0.0172224 -12.4854 
2 3.09233 -0.0730171 -14.5493 
1 5.14526 -1.73899 -14.4787 
2 6.99889 -1.57692 -12.539 
2 5.23725 -3.47412 -12.6553 
2 5.13522 0.080522 -12.5824 
1 -1.94288 -12.3972 -7.31964 
1 1.85467 -12.622 -7.26253 
1 -9.00391 -8.78637 -6.98583 
2 -5.37268 -10.7101 -8.5633 
1 -5.49598 -8.96932 -10.5753 
1 -7.06846 -8.89303 -8.78447 
1 -5.42534 -8.88601 -6.93555 
1 -7.29148 -10.7239 -7.00324 
1 -1.83433 -10.5505 -8.85258 
1 -1.74063 -8.88034 -10.8559 
1 -3.63421 -10.677 -7.07314 
2 -3.70407 -8.96779 -8.86913 
1 -1.80927 -8.79926 -7.00164 
1 -0.0573472 -10.6309 -10.7032 
1 0.0557127 -8.80561 -9.04552 
2 0.00525572 -10.6914 -7.17667 
1 1.70301 -8.96545 -10.9126 
2 1.84487 -10.6642 -8.79354 
1 3.71242 -10.7779 -7.18015 
2 3.54993 -8.84883 -9.00726 
1 1.82383 -8.82125 -7.23759 
1 5.10251 -10.8059 -9.04805 
1 7.01593 -8.97984 -8.92695 
1 5.32716 -8.90256 -7.13161 
1 7.08626 -10.6703 -7.27955 
1 5.34251 -8.94812 -10.76 
1 9.00587 -8.92615 -7.17933 
1 -10.6914 -5.19583 -8.94875 
1 -8.82808 -5.21023 -10.6121 
1 -9.06568 -7.17742 -8.84553 
2 -8.87635 -5.16225 -7.14453 
2 -10.6855 -7.0823 -6.98426 
1 -7.22453 -7.08055 -10.4749 
1 -5.64261 -5.28987 -10.8198 
1 -7.14891 -5.24694 -8.82679 
1 -5.40593 -7.00898 -8.85384 
2 -7.16597 -7.07872 -7.21143 
1 -5.2836 -5.28638 -6.93947 
2 -3.74655 -7.09477 -10.7172 
1 -1.93675 -5.37491 -10.7277 
1 -1.86811 -7.26883 -9.03096 
1 -3.69141 -5.26875 -9.03668 
1 -3.68489 -7.21693 -7.17433 
2 -2.08629 -5.3925 -7.30967 
2 -0.0730012 -7.18615 -7.23167 
2 0.013669 -5.35083 -9.05345 
1 0.0348304 -7.12697 -10.9007 
2 3.60868 -7.11491 -10.8473 
1 1.7174 -5.20491 -10.8286 
1 1.78703 -7.07739 -9.12333 
1 3.53154 -5.21879 -9.11787 
1 3.49611 -6.9322 -7.19202 
2 1.79855 -5.23634 -7.2419 
1 6.96718 -7.16689 -10.5442 
1 5.20329 -5.33785 -10.8689 
1 5.30836 -7.00516 -8.913 
1 6.98926 -5.22784 -8.93407 
1 6.99544 -7.10426 -7.27518 
1 5.20818 -5.25998 -7.23931 
1 8.66286 -5.26868 -10.6328 
1 10.5071 -5.25488 -8.98826 
1 10.7067 -6.93933 -7.16617 
2 8.84123 -7.0846 -8.90866 
1 8.80602 -5.23317 -7.15548 
1 -12.6356 -1.84954 -6.85419 
1 -10.9374 -1.84561 -8.67962 
1 -9.04044 -1.77954 -10.5645 
1 -10.7478 -3.54469 -6.96337 
1 -8.9851 -3.41283 -8.83543 
1 -9.01937 -1.94764 -7.05677 
1 -8.96306 -0.177512 -8.64879 
1 -7.28278 -3.3506 -10.517 
1 -5.42543 -1.71176 -10.5146 
1 -7.24659 -1.75468 -8.74679 
1 -5.43519 -3.55154 -8.95181 
1 -7.06634 -3.52534 -7.15073 
1 -5.1967 -1.80286 -7.09192 
1 -3.68329 -3.56949 -10.7822 
1 -1.91552 -1.8213 -10.815 
1 -3.60882 -1.81163 -8.92173 
2 -1.9098 -3.546 -9.00477 
1 -3.69235 -3.55626 -7.05468 
1 -1.87025 -1.80998 -7.09404 
1 -0.148008 -1.67517 -9.05186 
1 -0.223822 -3.62269 -10.8468 
1 -3.61417 0.015387 -10.7294 
1 0.106124 -3.45767 -7.29037 
1 -1.78679 -0.0168573 -8.98057 
1 -0.112131 -0.000686231 -7.19088 
1 3.47177 -3.47878 -10.8944 
1 1.57231 -1.78285 -10.7687 
1 1.76838 -3.47071 -9.04935 
2 3.5405 -1.83666 -8.98221 
1 3.52088 -3.42383 -7.15321 
1 1.80014 -1.85152 -7.16673 
2 1.66723 -0.0199447 -8.93691 
1 6.90806 -3.5065 -10.8142 
1 5.21357 -1.77803 -10.696 
1 6.99539 -1.88006 -9.01675 
1 5.24876 -3.68605 -9.0558 
1 6.9621 -3.63608 -7.17778 
1 5.34265 -1.81054 -7.05589 
2 7.17744 0.136647 -10.6654 
2 7.1934 0.0202047 -7.16773 
1 8.82308 -2.13344 -10.7788 
1 10.6407 -3.60462 -7.1229 
1 8.77348 -3.58769 -8.98435 
2 8.68888 -1.87319 -7.23908 
2 10.5693 -1.86648 -9.04596 
1 10.0149 -0.136263 -10.9708 
1 8.82356 -0.0485952 -9.08414 
1 12.4695 -1.75727 -7.35271 
1 -5.31929 -12.6877 -3.52255 
1 -1.63239 -13.9445 -5.39697 
1 -1.74899 -12.5354 -3.47913 
2 0.195792 -14.1623 -3.5859 
1 -3.7435 -12.6109 -5.22801 
1 0.218483 -12.5464 -5.49596 
1 3.65865 -12.5887 -5.54813 
1 -10.7854 -8.77673 -5.221 
1 -8.93647 -10.491 -5.33588 
2 -8.91339 -8.79045 -3.41949 
1 -7.26656 -10.7393 -3.61368 
1 -5.53557 -10.7681 -5.39618 
1 -7.0875 -8.85806 -5.27 
1 -5.29662 -8.87423 -3.60318 
2 -1.89765 -10.8263 -5.40362 
1 -3.57941 -10.7194 -3.56157 
1 -3.65867 -8.87852 -5.28641 
2 -1.79389 -8.95473 -3.64879 
2 2.08173 -12.6164 -3.60594 
1 0.0450851 -9.00892 -5.43553 
2 0.112621 -10.8692 -3.69923 
1 1.92468 -10.7466 -5.4972 
1 3.64714 -10.7237 -3.61879 
1 3.52133 -8.9964 -5.46338 
1 1.83212 -9.01494 -3.66101 
1 5.10034 -12.6748 -3.54517 
2 7.11247 -10.9421 -3.7874 
1 5.38083 -10.9435 -5.4691 
1 7.08133 -8.84305 -5.52207 
2 5.36296 -8.92085 -3.72799 
1 8.88061 -10.6174 -5.5454 
2 8.79291 -8.93969 -3.48967 
1 10.5815 -8.87621 -5.40566 
1 -12.6133 -5.39603 -3.33433 
1 -10.7633 -7.13013 -3.32658 
1 -10.8863 -5.42504 -5.26116 
2 -8.86696 -7.04344 -5.23806 
1 -8.95984 -5.31165 -3.44468 
1 -7.02909 -7.13647 -3.45095 
1 -7.03916 -5.35344 -5.29882 
1 -5.27736 -7.16632 -5.31363 
1 -5.28814 -5.49952 -3.51808 
1 -1.75666 -7.18501 -5.32867 
1 -3.50771 -7.15034 -3.62176 
1 -3.52516 -5.43032 -5.30328 
1 -1.79777 -5.43374 -3.4474 
2 -0.0224926 -5.38004 -5.33143 
1 0.0421526 -7.21906 -3.52497 
2 1.81713 -7.17041 -5.4558 
1 3.57214 -7.15948 -3.63056 
1 3.43214 -5.28659 -5.31431 
1 1.84854 -5.24103 -3.55375 
1 7.05922 -7.11384 -3.59797 
1 5.39464 -7.10636 -5.47508 
1 7.0768 -5.25066 -5.4705 
1 5.38516 -5.28206 -3.80471 
1 10.672 -7.08586 -3.75113 
1 10.6266 -5.27489 -5.35165 
2 8.78067 -7.14253 -5.5036 
2 8.81868 -5.31848 -3.66721 
1 12.2712 -5.37568 -3.69358 
1 -14.3172 -3.37551 -3.3259 
1 -12.6523 -3.63378 -5.1443 
2 -12.5107 -1.65719 -3.54792 
1 -10.8759 -1.69801 -5.30841 
2 -10.8425 -3.63799 -3.33618 
1 -9.00208 -3.59994 -5.17127 
2 -9.09314 -1.80287 -3.33512 
2 -7.05946 -1.93553 -5.32171 
1 -7.14224 -3.56724 -3.53895 
1 -5.19129 -3.59881 -5.1307 
1 -5.37748 -1.84327 -3.46378 
1 -3.56161 -1.79147 -5.1801 
1 -1.86323 -3.67362 -5.29225 
1 -3.55008 -3.66742 -3.52316 
1 -1.70662 -1.77571 -3.49432 
1 -0.0671017 -3.55816 -3.54641 
1 -0.0392928 -1.79391 -5.3571 
1 -0.10242 0.0398893 -3.51333 
1 -1.86924 -0.11314 -5.32647 
1 -3.64407 -0.0365322 -3.5138 
1 1.69919 -3.56325 -5.26058 
1 3.54093 -1.73348 -5.40584 
1 3.59942 -3.49689 -3.57674 
2 1.60241 -1.62921 -3.53004 
1 1.68575 -0.0820291 -5.44303 
1 7.05644 -1.79292 -5.30967 
1 7.02602 -3.47921 -3.67999 
1 5.20207 -3.54847 -5.52844 
1 5.27968 -1.75196 -3.64348 
1 7.18387 -0.0103683 -3.5353 
1 10.8142 -1.78396 -5.42743 
1 10.6006 -3.4592 -3.74753 
1 8.81956 -3.59406 -5.45345 
1 8.90091 -1.80815 -3.69051 
1 12.4066 -1.81483 -3.58587 
2 12.4738 -3.66205 -5.52794 
2 13.941 -3.60415 -3.33096 
1 -5.24808 -12.6175 -0.150168 
2 -7.00715 -12.7118 1.5654 
1 -1.64345 -14.2008 -1.68642 
1 -3.53653 -14.2398 -0.0207985 
1 -1.62375 -14.2488 1.47933 
1 -3.60601 -12.6203 -1.88362 
1 0.185314 -14.3623 -0.109853 
1 2.18706 -14.4392 -1.69308 
1 3.61505 -14.3509 0.403436 
2 1.70183 -14.1222 1.93704 
1 4.87864 -14.327 -1.70045 
1 5.22165 -12.5214 -0.00945576 
1 -10.6091 -10.6601 0.0582984 
1 -10.8605 -8.97772 -1.77408 
1 -8.99593 -10.5763 -1.77551 
2 -8.74595 -10.7045 1.71211 
1 -8.93132 -8.78746 0.0510266 
2 -10.7301 -8.76453 1.8426 
2 -7.25174 -12.3179 -1.68811 
1 -7.20789 -10.6634 -0.0636227 
2 -5.31015 -10.6577 -1.82204 
2 -5.30239 -10.6329 1.71062 
1 -7.11702 -8.89636 -1.71628 
1 -7.01484 -8.90769 1.62458 
1 -5.36078 -8.96313 -0.0477202 
2 0.0600215 -12.413 -1.74195 
1 -1.81669 -12.4093 -0.0526423 
1 -3.40303 -12.415 1.7543 
1 -3.55068 -10.7532 -0.0473571 
1 -1.8117 -10.6941 -1.82258 
1 -1.74924 -10.6214 1.76299 
1 -3.49975 -8.9687 -1.71923 
1 -3.50899 -8.95706 1.7996 
1 -1.72022 -8.99733 -0.0608572 
1 0.0548735 -8.96415 -1.7926 
1 0.0767521 -10.6526 0.0235107 
2 1.80298 -12.3739 0.0573465 
1 0.0693585 -12.3937 1.75341 
1 -0.0658707 -8.95396 1.72682 
1 3.61231 -12.5171 1.85679 
1 3.64075 -12.3214 -1.59872 
1 3.52064 -10.6056 0.079305 
1 1.90806 -10.7097 -1.75228 
1 1.80059 -10.6448 1.82859 
1 3.54033 -8.97705 -1.82707 
1 3.56175 -8.886 1.72321 
1 1.77898 -8.85778 0.0871444 
2 6.93331 -12.4924 -1.73045 
1 7.05066 -12.4383 1.74192 
1 6.97157 -10.707 -0.0782593 
1 5.236 -10.6337 -1.87439 
1 5.28222 -10.6796 1.7644 
1 6.97894 -9.01506 -1.88065 
2 7.00437 -8.93021 1.86215 
1 5.27303 -8.95335 -0.0182843 
1 8.87137 -11.0246 -1.98409 
1 8.77445 -12.2065 0.0354264 
1 10.7462 -9.00962 -1.87303 
1 10.7758 -8.95692 1.46818 
2 8.82137 -9.07723 -0.189476 
1 8.82898 -10.7243 1.95652 
1 -12.6488 -5.37875 0.137737 
1 -12.4783 -7.10026 -1.64109 
2 -10.6478 -7.06485 -0.00486645 
1 -10.7538 -5.35951 -1.5803 
1 -10.816 -5.44469 1.81265 
1 -8.90729 -7.08085 -1.75092 
1 -8.82337 -7.15494 1.85357 
1 -8.95711 -5.30752 0.0599083 
1 -7.11456 -7.12069 -0.100807 
1 -7.21455 -5.31311 -1.78853 
1 -5.28039 -7.20144 -1.84113 
2 -7.02407 -5.58366 1.7512 
1 -5.21546 -7.17059 1.7161 
1 -5.32535 -5.40584 -0.101628 
1 -3.44481 -7.1493 -0.0556092 
1 -1.75131 -7.1428 -1.77416 
1 -1.83205 -7.22053 1.77918 
1 -3.59338 -5.5123 -1.73433 
1 -3.55571 -5.39956 1.6551 
2 -1.80983 -5.23269 0.00510001 
1 0.103553 -5.48215 -1.75628 
1 0.0326041 -7.17166 -0.0137328 
1 -0.0472924 -5.37555 1.69932 
1 3.6101 -7.20021 0.00383139 
2 1.82225 -7.3083 -1.71017 
1 1.76983 -7.19523 1.7974 
2 3.64926 -5.37797 -1.83858 
1 3.49648 -5.42183 1.75991 
1 1.79117 -5.41565 0.0723543 
1 7.08036 -7.17309 -0.0538963 
1 5.296 -7.21327 -1.88709 
1 7.04493 -5.30263 -1.82801 
1 5.35262 -7.03855 1.62675 
2 7.29286 -5.34646 1.82842 
1 5.24905 -5.33404 0.0215864 
1 10.6388 -7.10617 -0.233779 
1 10.5277 -5.39096 1.64653 
1 10.4862 -5.37387 -1.89769 
1 8.857 -7.14321 -1.81204 
1 8.93809 -7.29273 1.70001 
1 8.88388 -5.29108 -0.121463 
1 12.4168 -6.95742 1.6677 
2 12.4045 -5.3293 -0.314568 
1 12.55 -7.181 -1.96965 
1 -14.3253 -3.5907 0.164338 
2 -14.2395 -1.52752 -1.69601 
1 -14.2844 -1.79046 1.85003 
1 -12.5924 -3.60892 -1.61664 
1 -12.4998 -1.71309 0.124937 
1 -12.5031 -3.55475 1.74746 
1 -10.7897 -3.5865 0.0573035 
1 -10.8745 -1.82885 -1.57253 
1 -10.6705 -1.76586 1.81466 
1 -8.87216 -3.54472 -1.56557 
2 -8.92278 -3.65454 1.73524 
1 -8.90574 -1.67169 0.076019 
1 -6.96481 -3.55987 -0.0456257 
1 -7.09574 -1.77924 -1.7966 
1 -7.27846 -1.71297 1.72369 
1 -5.24821 -3.56078 -1.78277 
2 -5.31527 -3.58903 1.7038 
2 -5.41466 -1.71556 -0.0990571 
1 -0.0572707 -0.0537288 -0.0222823 
1 -3.60527 -3.56979 -0.0672714 
1 -3.48446 -1.70484 -1.81186 
2 -1.7356 -3.57758 -1.83346 
2 -3.54358 -1.70503 1.93626 
1 -1.91642 -3.51575 1.77304 
1 -1.79933 -1.76991 -0.0257959 
1 -0.113338 -1.78861 -1.75659 
1 -0.0215596 -1.73957 1.76972 
1 0.0710718 -3.57517 -0.0363605 
1 -1.84153 -2.24716e-05 -1.7187 
1 1.75547 -0.0656367 -1.74567 
2 3.48159 -3.58683 0.1409 
2 1.83223 -3.49542 -1.73871 
1 3.50844 -1.70628 -1.77475 
1 1.72395 -3.48029 1.92386 
1 3.59717 -1.79082 1.91985 
1 1.68812 -1.81058 0.212799 
2 1.72552 0.0606392 1.89555 
1 5.38922 -0.0111704 -1.8398 
1 7.13406 -3.58293 -0.13428 
1 7.16754 -1.72844 -1.94331 
1 7.19056 -1.80732 1.67105 
1 5.32531 -3.484 -1.86135 
1 5.38386 -3.5597 1.81712 
2 5.37989 -1.79394 0.00510374 
1 10.5517 -3.57967 -0.0791144 
1 10.757 -1.8302 1.74677 
1 10.5488 -1.61514 -1.818 
1 8.83419 -3.45774 -1.96609 
1 8.96267 -3.44548 1.62219 
2 8.87361 -1.71733 -0.131841 
1 12.1325 -3.42909 -1.86002 
1 12.3942 -1.77853 -0.148311 
2 12.4726 -3.63924 1.47664 
2 12.5141 -0.131086 -1.90527 
2 14.169 -3.55276 -0.565198 
1 14.594 -1.67781 -1.90703 
1 14.2652 -1.98258 1.48573 
2 -5.30895 -12.7301 3.51733 
2 -3.14731 -14.1475 3.60036 
1 -0.293147 -14.0526 3.55374 
1 3.45877 -14.092 3.73348 
1 3.25962 -12.5284 5.51481 
1 5.35203 -12.4496 3.69029 
1 -10.6737 -10.6355 3.40004 
1 -10.562 -8.87467 5.27966 
2 -8.72261 -8.91548 3.6086 
2 -8.84609 -10.7836 5.31221 
1 -7.03947 -10.9067 3.52694 
1 -5.41171 -10.8139 5.41325 
1 -6.99118 -9.02101 5.37004 
2 -5.39943 -8.90671 3.57756 
2 -3.55984 -12.3913 5.4549 
1 -1.79584 -12.2411 3.62683 
1 -1.79152 -10.6048 5.3708 
1 -3.5902 -10.7827 3.50241 
2 -3.59771 -8.94854 5.48028 
1 -1.8255 -9.04999 3.59292 
1 -0.0071776 -8.89982 5.35824 
2 -0.0611031 -12.3768 5.32888 
1 1.6584 -12.508 3.63369 
1 0.00462321 -10.6616 3.55428 
1 1.7412 -10.6241 5.53096 
2 3.49921 -10.7982 3.69847 
1 3.63352 -9.04336 5.47314 
1 1.78825 -8.94697 3.67826 
1 7.11454 -10.7434 3.88007 
1 5.17942 -10.8678 5.85833 
2 7.09273 -8.84574 5.48996 
2 5.29935 -8.85077 3.63643 
1 9.12811 -10.4147 5.68828 
2 9.04268 -8.8533 3.61127 
2 10.6701 -8.41714 5.51369 
1 -12.4682 -5.32995 3.47989 
1 -10.8209 -7.12986 3.52147 
1 -10.8077 -5.31907 5.32815 
1 -8.81828 -7.15514 5.38517 
1 -9.01065 -5.40685 3.60958 
1 -7.01198 -7.06465 3.72487 
1 -7.15749 -5.41989 5.46644 
1 -5.31757 -7.17148 5.44127 
2 -5.17602 -5.45412 3.67425 
1 -1.80216 -7.17268 5.31853 
1 -3.49495 -7.22648 3.43284 
1 -3.56319 -5.34952 5.40457 
2 -1.83865 -5.40281 3.49886 
1 0.0811701 -7.20535 3.47877 
2 0.0459902 -5.4395 5.34337 
1 1.76987 -7.18956 5.27844 
1 3.48185 -7.17671 3.53251 
1 3.50931 -5.31419 5.19811 
1 1.7642 -5.33288 3.48035 
1 7.18562 -7.1053 3.56162 
1 5.19989 -7.13063 5.50807 
2 7.05296 -5.3525 5.34331 
2 5.21933 -5.47219 3.5193 
1 10.6173 -6.96792 3.44711 
1 10.7693 -5.39178 5.43492 
1 8.77772 -6.91615 5.54606 
1 9.02921 -5.29152 3.53495 
2 12.4835 -5.35101 3.45681 
1 -14.0915 -3.49299 3.55804 
1 -12.4946 -3.50823 5.39352 
1 -12.469 -1.83806 3.49583 
1 -10.6665 -1.85206 5.29453 
1 -10.777 -3.57236 3.47632 
1 -8.95486 -3.67213 5.45228 
2 -9.03495 -1.79504 3.57375 
1 -7.21009 -1.78029 5.46844 
2 -7.0822 -3.62243 3.67602 
1 -5.39614 -3.51632 5.44526 
1 -5.4793 -1.68457 3.60699 
1 -7.26553 -0.01031 3.63907 
2 -3.57249 -1.78137 5.3604 
2 -1.73155 -3.53196 5.4146 
1 -3.58937 -3.53499 3.6282 
1 -1.69196 -1.75101 3.54078 
1 0.054179 -1.75273 5.55666 
1 -1.75821 -0.0105845 5.31262 
1 -0.019427 -0.0109788 3.60431 
1 1.83834 0.219732 5.3511 
1 -0.0297119 -3.59562 3.57189 
1 1.74304 -3.47521 5.28843 
1 3.5681 -1.71182 5.36293 
1 3.48848 -3.47281 3.63965 
1 1.77514 -1.77539 3.67112 
1 3.60942 0.121145 3.69621 
1 7.20499 -1.71074 5.22549 
1 7.06834 -3.51174 3.54857 
1 5.33504 -3.56289 5.29334 
1 5.3929 -1.82657 3.54814 
1 5.26678 -0.0136898 5.34859 
2 10.6993 -1.85074 5.30495 
1 10.578 -3.58204 3.49916 
2 8.85342 -3.54255 5.34339 
1 8.81258 -1.92107 3.37027 
1 8.95378 0.124619 5.3845 
2 12.5926 -2.05276 3.45988 
1 12.5553 -3.85893 5.26416 
1 14.6011 -3.55133 3.35084 
1 14.3444 -1.97175 5.16747 
1 -8.8715 -8.87569 7.01456 
1 -5.29309 -9.128 10.6263 
1 -5.31413 -10.8272 8.85947 
1 -7.19269 -10.7516 7.07382 
2 -7.09728 -8.97047 8.79566 
1 -5.3761 -9.01417 7.18483 
1 -1.66238 -12.3717 7.2295 
2 -1.8655 -8.6836 10.7742 
1 -1.72025 -10.4992 8.95515 
1 -3.52192 -10.7184 7.22334 
1 -3.57953 -8.8716 8.86392 
1 -1.83416 -8.84117 7.28172 
1 -0.0863355 -8.74303 9.00916 
1 -0.0638084 -10.4919 7.06246 
1 1.35086 -12.4182 7.29406 
1 1.46848 -10.5694 9.14787 
1 3.38392 -10.824 7.37597 
1 3.38476 -8.92533 9.04759 
1 1.77541 -8.85264 7.20812 
1 1.72201 -8.74163 10.8836 
1 7.15803 -10.6441 7.21317 
1 5.13118 -8.85346 10.4521 
1 5.35667 -10.6825 8.84779 
1 7.18353 -8.75456 8.99222 
1 5.32625 -8.7534 7.33122 
1 8.90658 -8.65874 7.25801 
1 -10.5503 -5.37013 9.26361 
2 -10.607 -7.07898 7.02252 
1 -8.8307 -7.0215 8.94355 
1 -8.84826 -5.43548 7.17161 
1 -8.54879 -5.21579 10.6135 
1 -5.59074 -5.42152 10.9099 
1 -7.09882 -7.28906 10.7126 
1 -7.00759 -5.39834 8.86391 
1 -5.35963 -7.115 8.88349 
1 -7.08789 -7.23752 7.14804 
1 -5.33048 -5.29485 7.15433 
2 -3.79501 -7.20923 10.8336 
1 -1.86866 -5.35124 10.8503 
1 -1.95413 -6.97313 8.96565 
2 -3.61662 -5.31126 8.91496 
1 -3.65715 -7.09784 7.10749 
1 -1.75876 -5.51283 7.08075 
1 -0.108066 -7.30146 7.14786 
1 -0.0357293 -7.01609 10.6776 
2 -0.0107599 -5.45565 8.99142 
1 3.70602 -6.89427 10.8891 
1 1.73038 -5.17009 10.7906 
1 1.95017 -7.11439 9.14644 
1 3.55068 -5.40254 9.04778 
1 3.59609 -7.2104 7.24258 
2 1.96932 -5.39742 7.19553 
1 6.92834 -7.10008 10.8042 
1 5.39051 -5.16788 10.5853 
1 5.31094 -7.04469 8.96133 
1 7.01699 -5.19225 8.87447 
1 7.09595 -6.98102 7.31441 
2 5.26273 -5.28325 7.18689 
1 8.58806 -5.18563 10.8409 
1 10.4284 -5.01711 9.16775 
1 10.5979 -6.79036 7.42649 
1 8.80413 -6.82853 9.09653 
1 8.83084 -5.18064 7.2439 
2 -12.0249 -1.77787 7.31087 
1 -9.04487 -1.79827 10.2662 
1 -11.1195 -2.86452 9.49405 
2 -10.9144 -3.88275 7.18781 
1 -8.83626 -3.74334 8.71623 
2 -9.2093 -1.78932 7.30174 
1 -11.0691 -0.511118 9.24934 
1 -7.1585 -3.32301 10.6202 
1 -5.389 -1.64944 10.6426 
1 -7.08384 -1.74518 8.72514 
2 -5.49016 -3.51243 8.9675 
1 -7.18994 -3.56627 7.05532 
1 -5.44224 -1.75068 7.14541 
1 -5.41764 0.0485701 8.83851 
1 -3.78792 -3.47709 10.7436 
1 -1.81245 -1.62181 10.7458 
1 -3.56257 -1.7359 8.84553 
2 -1.84771 -3.47648 9.07374 
1 -3.48828 -3.55155 7.14156 
1 -1.75255 -1.71627 7.22978 
1 -1.8264 0.131258 9.04085 
1 -0.0650953 -1.66065 9.00367 
2 -0.0261148 -3.51893 7.282 
1 -3.67875 -0.106412 10.6442 
1 1.76356 0.0584916 8.88855 
1 -0.0535943 -3.47809 10.7365 
1 1.88388 -1.64949 7.1753 
2 3.64993 -3.50083 7.14768 
1 1.92856 -1.63365 10.5793 
1 1.78726 -3.56217 8.91267 
1 3.74637 -1.6166 8.8177 
1 3.56264 -3.40913 10.6923 
1 3.64345 0.0346329 7.12223 
1 3.58364 0.108684 10.7656 
2 -0.0413298 0.184003 7.09446 
1 7.03508 -3.3021 7.15608 
1 5.22954 -1.61694 10.7252 
1 5.39261 -3.40936 9.031 
1 7.26914 -1.61919 8.95395 
1 7.13227 -3.22871 10.8555 
1 5.34055 -1.63504 7.12236 
1 5.35081 0.0559375 9.01524 
1 7.19919 -0.0253257 7.20466 
1 7.26311 -0.0927715 10.7862 
2 10.6789 -0.0637997 7.12831 
1 8.99731 -1.87562 10.8563 
1 8.73618 -3.45865 8.99202 
1 10.8157 -3.7297 7.06185 
2 10.8507 -2.09861 9.02603 
1 8.93378 -1.8104 7.13039 
2 9.15287 -0.0834564 9.09458 
1 12.3618 -0.0934684 8.87954 
2 12.5874 -1.98403 7.06552 
1 -0.0521603 -8.70366 12.4865 
1 -1.73798 -6.95297 12.6729 
1 -3.59729 -5.2652 12.5262 
1 -0.114043 -6.61673 14.2859 
1 3.5218 -5.12332 12.5568 
1 1.74586 -4.95996 14.2986 
2 1.71717 -6.82691 12.5302 
1 -0.15042 -5.2246 12.3823 
1 -7.25237 -1.62725 12.2336 
1 -5.48006 -3.47748 12.4887 
1 -1.69493 0.052329 12.3982 
2 -0.0516301 -3.42335 13.9928 
1 -3.54171 0.0099658 14.2039 
1 0.0600785 -1.67485 12.4209 
1 -1.88165 -3.50908 12.3038 
1 -3.60021 -1.83401 12.4541 
1 -1.59977 -1.61183 14.0991 
1 3.5515 -1.64175 12.6218 
1 1.78182 -3.42146 12.3829 
1 1.77899 -1.98402 14.2523 
1 0.248747 -0.100468 14.3637 
1 3.05317 0.0393368 14.1971 
1 5.28754 0.0379508 12.6207 
2 5.2243 -3.39209 12.4926 
1 7.05363 -1.68004 12.6325 
1 -7.36454 1.75742 -12.3883 
1 -5.70465 3.59276 -12.6231 
2 -2.03453 1.8578 -14.3925 
2 -3.79926 1.99958 -12.6437 
1 -1.83696 3.59415 -12.4164 
1 -3.85149 0.133508 -14.2825 
2 -0.0479488 2.04061 -12.5522 
1 -0.0608687 3.52547 -14.3253 
2 -0.117258 0.261266 -14.532 
1 3.53932 3.69391 -14.1294 
1 3.40589 1.85183 -12.4958 
2 1.79936 3.79798 -12.4626 
1 1.71497 1.94592 -14.5686 
1 4.88458 1.67255 -14.3391 
1 7.1403 1.96582 -12.6274 
1 5.31316 3.66832 -12.4813 
1 -1.9488 7.18514 -12.4069 
1 -3.66924 5.09635 -12.4359 
1 -0.138375 5.39591 -12.5371 
1 1.55832 7.13046 -12.3415 
1 3.54614 5.46094 -12.5438 
1 -12.2376 1.7792 -7.5942 
1 -10.9502 2.76459 -9.35118 
1 -9.02725 1.46684 -10.6248 
2 -8.74546 3.70561 -8.76239 
2 -9.26941 1.77381 -7.22236 
1 -10.8346 3.76963 -7.23796 
1 -11.1392 0.298063 -9.52247 
1 -10.9331 -0.0797349 -7.2004 
1 -7.32081 3.53251 -10.757 
2 -5.40777 1.84502 -10.6565 
2 -7.16585 1.72842 -8.84155 
1 -5.37734 3.59516 -8.964 
1 -7.14454 3.76685 -6.92957 
2 -5.3188 1.85399 -7.06866 
1 -7.257 -0.0305033 -10.567 
1 -5.29043 -0.0992881 -8.82957 
1 -7.12293 -0.0288597 -7.0801 
1 -3.6363 3.69271 -10.657 
1 -2.06592 1.84033 -10.8115 
1 -3.60634 1.60346 -8.88451 
2 -1.87303 3.52356 -8.89558 
2 -3.56256 3.53031 -7.01975 
1 -1.83135 1.59736 -7.13244 
1 -0.222288 3.56903 -7.10227 
1 -0.112145 3.63282 -10.6637 
1 -3.57715 -0.0219947 -7.05477 
1 -0.13891 0.112828 -10.6863 
1 -0.188134 1.84808 -9.00189 
1 3.45613 3.58983 -10.7419 
1 1.65542 1.81525 -10.7297 
1 3.5233 1.77977 -8.94379 
2 1.8045 3.56293 -8.77061 
1 3.6226 3.64734 -7.04553 
2 1.67211 1.73436 -7.12869 
1 3.37788 0.0818792 -10.7451 
1 3.58572 -0.0258698 -7.07203 
2 6.95031 3.66912 -10.6935 
1 5.18607 1.84873 -10.7144 
1 6.96608 1.82285 -8.96297 
1 5.25047 3.68023 -8.96447 
1 6.90582 3.46415 -7.31822 
1 5.15236 1.75038 -7.18951 
2 5.23816 0.037665 -8.95063 
1 8.89824 2.07199 -10.8971 
2 10.5346 1.76154 -9.14204 
1 8.8116 3.58771 -8.88373 
1 8.77614 1.80767 -7.23378 
1 10.6624 3.41735 -7.20869 
2 12.4582 1.73445 -7.18645 
2 10.4944 0.0394732 -7.19014 
1 -10.7221 5.41454 -8.96378 
1 -10.8233 6.97312 -7.19871 
1 -8.88921 7.2943 -8.82393 
1 -8.97836 5.44424 -7.02265 
1 -8.87406 5.53253 -10.5459 
2 -5.48937 5.40836 -10.6843 
1 -7.10979 7.28209 -10.5763 
1 -7.07151 5.4742 -8.77236 
1 -5.46934 7.27441 -8.78326 
2 -7.08187 7.31443 -7.05462 
1 -5.42972 5.36896 -6.87695 
2 -3.87854 7.25483 -10.7316 
1 -1.9119 5.48131 -10.6647 
1 -1.97154 7.23596 -8.86231 
2 -3.77057 5.55888 -8.87428 
1 -3.62894 7.19904 -6.91016 
1 -1.92463 5.43033 -7.18901 
2 -0.08739 5.39072 -8.85643 
1 -0.124908 7.17512 -10.6137 
1 -0.171113 7.27776 -7.1545 
1 3.47543 7.23488 -10.6855 
1 1.6571 5.44865 -10.7402 
2 1.68655 7.22859 -8.92693 
1 3.49494 5.40375 -9.01501 
1 3.58486 7.10858 -7.08594 
1 1.73498 5.42832 -7.09599 
1 7.10225 7.08309 -10.6924 
1 5.20054 5.57814 -10.8466 
1 7.15017 5.35038 -8.86222 
1 5.38248 7.05209 -8.85858 
1 7.10367 7.09024 -7.20271 
1 5.31542 5.29902 -7.03617 
1 8.8876 5.3475 -10.6903 
1 10.5862 5.33756 -8.84344 
1 9.0092 7.06959 -8.95697 
1 8.82219 5.31351 -7.17426 
2 10.6222 6.94365 -6.9771 
1 -9.07957 9.08576 -7.05594 
1 -5.49822 9.11905 -10.6491 
1 -5.23221 10.6381 -8.73936 
1 -7.26709 9.19144 -8.81116 
1 -5.38302 8.97131 -7.02015 
1 -7.06808 10.709 -6.86167 
2 -1.87092 8.93032 -10.6203 
2 -2.13383 10.7039 -8.69551 
1 -3.57715 10.6029 -6.91807 
1 -3.68205 8.84981 -8.78079 
1 -1.90098 8.91556 -7.10395 
1 -0.206979 8.95931 -8.84484 
1 -0.182807 10.6015 -7.05695 
1 -0.149931 12.0787 -8.94903 
1 1.43212 9.01043 -10.6616 
1 1.93167 10.6621 -9.12126 
1 3.59298 10.7353 -7.33495 
1 3.57351 8.8434 -8.78199 
1 1.80975 8.95423 -7.22505 
1 5.30529 8.82763 -10.5381 
1 5.30062 10.666 -8.94967 
1 7.16107 10.5062 -7.1888 
1 7.15493 8.76522 -8.83116 
1 5.35485 8.84692 -7.0855 
1 9.00578 8.75917 -7.19407 
1 -1.85059 12.4675 -6.97561 
2 1.67638 12.2553 -7.20748 
2 -14.1461 3.44844 -3.57356 
2 -12.4262 3.45009 -5.2601 
1 -14.3452 0.196315 -3.58243 
1 -12.4532 1.66391 -3.35309 
1 -12.6182 0.183139 -5.38367 
2 -10.8076 1.73794 -5.28652 
1 -10.805 3.67922 -3.54537 
1 -9.0511 3.7005 -5.42754 
2 -9.00123 1.92758 -3.51299 
2 -8.91122 -0.137542 -5.39984 
1 -10.7854 0.0242031 -3.54073 
1 -7.13007 1.81046 -5.41357 
2 -7.08812 3.59057 -3.55108 
1 -5.25004 3.57744 -5.21799 
1 -5.25698 1.76774 -3.52376 
2 -7.11704 -0.0237813 -3.52057 
1 -5.35626 0.141081 -5.34171 
1 -3.43102 1.83717 -5.15086 
1 -1.77236 3.63588 -5.21946 
1 -3.51905 3.62645 -3.5196 
1 -1.87116 1.61275 -3.54224 
1 -0.229955 1.67706 -5.30983 
1 0.0759629 3.57384 -3.51138 
1 3.57886 1.8104 -5.37587 
2 1.76559 3.61298 -5.4111 
1 3.61239 3.66204 -3.5353 
2 1.71367 1.67638 -3.64414 
1 3.5219 -0.0239568 -3.60446 
1 7.00902 1.79481 -5.42363 
1 6.91461 3.50977 -3.57829 
1 5.3073 3.52391 -5.36594 
1 5.27947 1.66901 -3.56875 
1 5.32446 0.0364006 -5.50404 
1 10.5648 -0.004152 -3.59525 
1 10.7309 1.81058 -5.37407 
1 10.654 3.59174 -3.62732 
2 8.84578 3.54897 -5.42906 
1 8.8745 1.89727 -3.66405 
1 8.90453 0.178001 -5.32648 
1 12.4789 1.77353 -3.75028 
1 12.5379 3.63455 -5.4403 
2 12.5181 -0.106644 -5.45218 
1 14.1327 3.57287 -3.63585 
2 14.2494 -0.080101 -3.81236 
1 -12.6785 5.38744 -3.4905 
1 -10.9063 7.19082 -3.53935 
1 -10.8701 5.39419 -5.2933 
2 -9.0618 7.30279 -5.34933 
1 -9.07843 5.41881 -3.62121 
1 -7.25018 7.13399 -3.5171 
1 -7.26695 5.45973 -5.25936 
1 -5.29276 7.16029 -5.16046 
1 -5.37178 5.33077 -3.56541 
1 -1.77156 7.1084 -5.33469 
1 -3.61503 7.21604 -3.49304 
1 -3.49096 5.43063 -5.13686 
1 -1.78137 5.37693 -3.3844 
1 -0.0484028 5.33931 -5.47501 
2 0.0181527 7.09831 -3.56851 
1 1.7398 7.20901 -5.5342 
2 3.42286 7.29385 -3.66374 
1 3.62016 5.25607 -5.25506 
1 1.809 5.45757 -3.63676 
1 7.19628 7.01741 -3.56342 
1 7.07167 5.3225 -5.46844 
2 5.40353 7.13526 -5.32332 
1 5.49277 5.36212 -3.64222 
1 10.6623 7.08378 -3.60044 
1 10.6081 5.3161 -5.2405 
1 8.82721 7.05679 -5.30656 
1 8.73144 5.22164 -3.53476 
2 12.387 5.41265 -3.69992 
1 -10.8526 9.18485 -5.177 
1 -8.88109 10.6108 -5.12891 
1 -8.88491 8.88789 -3.47962 
1 -10.5514 10.7016 -3.3365 
1 -7.1422 10.7798 -3.4377 
1 -5.48576 10.9505 -5.20998 
1 -7.02556 8.9653 -5.15189 
1 -5.40513 9.0317 -3.4671 
1 -5.3713 12.4654 -3.31678 
1 -1.85616 10.6709 -5.20959 
1 -3.59522 10.7425 -3.39905 
2 -3.58438 8.99264 -5.14393 
1 -1.77943 8.88696 -3.45036 
1 -0.024345 10.7112 -3.48664 
1 -1.87568 12.4174 -3.47344 
1 -0.0611593 8.93682 -5.3091 
1 -3.66003 12.4841 -5.20156 
2 1.6228 10.7436 -5.34224 
1 3.63904 10.5498 -3.59884 
1 3.55138 9.05437 -5.47548 
1 1.79032 8.99908 -3.50104 
1 1.78922 12.3099 -3.40427 
1 3.57929 12.4036 -5.42728 
1 7.1754 10.8214 -3.36423 
2 5.41721 10.7272 -5.35656 
1 7.21105 8.73361 -5.46061 
2 5.49338 9.0042 -3.57188 
1 5.35529 12.5556 -3.61998 
1 10.6502 8.82747 -5.32729 
1 8.68349 10.5196 -5.19775 
1 8.8711 8.77161 -3.56182 
1 -0.210898 12.3704 -5.32922 
1 -3.37969 14.3568 -3.51195 
1 -0.149979 14.2506 -3.5048 
2 1.70408 13.8518 -5.20119 
1 3.53481 14.0902 -3.61294 
1 -14.3424 0.136222 0.038061 
1 -14.3756 3.49412 -0.0302987 
1 -14.2664 1.75956 -1.56322 
1 -14.3586 1.80606 1.79437 
2 -12.5177 3.63686 1.65406 
1 -12.5109 1.68818 -0.0570634 
1 -10.733 0.107976 0.00768042 
1 -12.583 3.65519 -1.7397 
2 -10.7775 3.71765 -0.110866 
1 -10.7151 1.79151 -1.79262 
1 -10.7599 1.92214 1.78746 
1 -8.9604 3.69822 -1.8423 
1 -8.96566 3.60395 1.82966 
1 -8.9883 1.97986 -0.0113817 
2 -8.86218 0.208054 1.67813 
2 -12.481 -0.0173584 1.74525 
1 -9.06353 -0.0486197 -1.71031 
1 -12.475 -0.0142948 -1.73649 
1 -7.13951 3.58224 -0.0674661 
1 -7.14544 1.90672 -1.78084 
1 -7.1018 1.90159 1.61561 
1 -5.29522 3.61768 -1.68517 
1 -5.37431 3.47583 1.68527 
1 -5.32026 1.76772 -0.0521877 
2 -5.59025 0.0380996 1.75341 
1 -5.30457 -0.00838505 -1.71821 
1 -7.16718 0.0868437 -0.162503 
2 -3.44415 3.54173 0.0806658 
1 -3.49272 1.82698 -1.80099 
2 -1.77423 3.58677 -1.81907 
1 -3.55174 1.85308 1.81063 
1 -1.73202 3.60883 1.9426 
1 -1.81201 1.74536 0.085196 
1 -0.0778365 1.72002 -1.73997 
1 -3.46447 0.0245636 -0.011709 
1 -1.72542 0.0241161 1.73676 
1 0.000358741 1.8544 1.81132 
1 0.00267536 3.54966 0.0225535 
2 3.63316 3.61483 0.0755869 
1 3.52605 1.79909 -1.81793 
2 1.71397 3.62028 -1.77665 
1 3.61517 1.87542 1.88221 
1 1.85135 3.67269 1.93514 
2 1.70118 1.75704 0.0932232 
2 3.53006 -0.036359 0.0210976 
1 7.20454 3.63137 0.0728953 
1 7.02474 1.78311 -1.88569 
1 7.1278 1.81114 1.82093 
1 5.33424 3.74005 -1.72556 
1 5.45297 3.61188 1.98295 
2 5.45256 1.81212 0.00289076 
1 5.2661 0.0829456 1.7447 
1 7.17883 0.046366 -0.0464068 
1 12.5606 0.0159855 1.61975 
1 10.7874 3.56778 0.0130029 
1 10.8309 1.85974 1.73573 
2 10.7285 1.8487 -1.88751 
1 8.84076 3.52225 -1.84069 
1 8.89584 3.56425 1.86381 
1 8.97258 1.90197 -0.021978 
1 12.497 3.73317 -1.94458 
2 9.00162 0.0306054 1.67685 
1 12.518 1.78091 -0.0180877 
1 8.83673 0.235631 -1.74869 
1 10.7432 0.121675 -0.0836698 
1 12.6831 3.68721 1.6949 
1 14.4498 0.0943802 -0.0719595 
1 14.2698 3.49671 -0.0779683 
2 14.2077 1.94536 -1.83399 
1 14.2792 1.77891 1.70649 
1 -12.6943 5.34438 -0.0102243 
1 -12.4447 7.28206 1.64164 
1 -12.4667 7.16123 -1.75678 
1 -10.8534 7.06989 0.0440091 
1 -10.7532 5.36452 -1.86418 
1 -10.8438 5.38791 1.85305 
1 -8.85913 7.05949 -1.67531 
2 -9.03369 7.11588 1.73649 
1 -8.97829 5.32105 -0.00568478 
1 -7.06938 7.14678 0.150967 
1 -7.23157 5.35692 -1.65159 
2 -5.36894 7.12389 -1.68723 
1 -7.12072 5.26925 1.80983 
1 -5.41127 7.09624 1.7549 
1 -5.41753 5.35249 -0.00281023 
1 -3.55557 7.12789 0.169784 
1 -1.85659 7.19588 -1.83257 
1 -1.71747 7.26967 1.77671 
1 -3.59117 5.47067 -1.71633 
1 -3.59605 5.39149 1.92569 
2 -1.81039 5.42556 0.072579 
1 -0.00400765 5.42831 -1.77215 
1 0.0180801 7.09989 -0.0067315 
1 0.0434275 5.45296 1.85467 
1 3.63967 7.0492 0.0098706 
1 1.76662 7.14312 -1.66065 
2 1.84148 7.20505 1.73546 
1 3.55315 5.33841 -1.78964 
2 3.68149 5.35343 1.83157 
1 1.71166 5.41582 0.0143521 
1 7.23404 7.16048 0.0808253 
1 7.14637 5.20015 -1.71112 
2 5.29104 7.10384 -1.79605 
1 7.09108 5.31711 1.93101 
1 5.495 7.10338 1.90332 
1 5.42856 5.4895 0.01047 
1 10.6589 6.94703 -0.111971 
1 10.7669 5.27951 1.74332 
1 10.6242 5.29343 -1.88408 
1 8.93213 6.95397 -1.81318 
2 9.16957 7.36596 1.82479 
1 8.95446 5.34267 0.0650837 
2 11.9481 7.37325 1.80539 
1 12.3323 6.96605 -1.80129 
1 12.5461 5.35178 -0.0556417 
2 -8.81214 10.7183 -1.73248 
1 -9.09343 10.8152 1.52218 
2 -10.6442 8.86134 -1.70936 
1 -10.7962 8.99871 1.55012 
1 -8.80012 8.87096 -0.0277068 
1 -7.15896 10.5911 0.0188652 
1 -5.55188 10.7001 1.8849 
1 -5.34706 10.6352 -1.67167 
1 -7.21054 8.89135 -1.73262 
1 -7.08591 8.98686 1.81049 
1 -5.37354 8.88387 0.072515 
1 -7.28462 12.3252 1.85612 
2 -5.51162 12.4519 0.025793 
1 -3.48921 10.7097 0.0691616 
2 -1.79958 10.6481 1.84485 
1 -1.79936 10.5995 -1.69511 
1 -3.61046 8.84236 -1.62769 
2 -3.70445 9.01882 1.80534 
1 -1.77145 8.76011 -0.0481914 
1 -1.72525 12.3702 0.0403699 
1 -3.47808 12.4571 -1.59241 
1 0.110975 10.6673 0.134972 
2 0.0982996 8.97628 -1.63787 
1 0.100792 8.91943 1.80096 
1 3.54012 10.7292 0.210684 
1 1.82062 10.6945 1.81937 
1 1.91898 10.7059 -1.71772 
1 3.55055 9.0315 -1.59432 
1 3.70526 8.83408 1.96641 
1 1.91336 8.97069 0.121321 
2 1.85513 12.445 0.117691 
2 3.60272 12.4222 -1.74861 
1 7.39513 10.687 0.0447089 
1 5.50767 10.7555 1.87697 
2 5.42493 10.7773 -1.61463 