ITEM: TIMESTEP
1670000
ITEM: NUMBER OF ATOMS
1289
ITEM: BOX BOUNDS pp pp pp
-100 100
-100 100
-100 100
ITEM: ATOMS type x y z 
1 -1.67865 -6.93622 -12.5686 
1 -3.54809 -5.25788 -12.4918 
1 -0.0398566 -5.21539 -12.4132 
1 1.7232 -6.79991 -12.4866 
1 3.44764 -5.07993 -12.5986 
1 -7.17417 -1.88215 -12.4482 
2 -5.45539 -3.61768 -12.3509 
1 7.01001 -1.76855 12.6301 
2 -1.80438 -1.9259 -14.3095 
2 -3.65281 -1.99818 -12.5176 
1 -1.8304 -3.58492 -12.4818 
1 -0.225315 -1.81074 -12.401 
1 -0.0647848 -3.58495 -14.2062 
1 -3.51699 0.117744 -14.4844 
2 -2.11634 0.000879306 -12.473 
2 5.28452 -3.57283 12.3153 
2 3.47631 -3.10144 -14.2108 
1 1.73744 -3.40484 -12.4531 
1 3.46644 -1.77054 -12.3455 
1 1.53674 -1.78522 -14.3946 
2 3.42723 -0.190801 -14.2463 
2 1.6407 -0.188443 -12.5006 
1 5.45661 -1.63785 -14.2929 
2 7.30897 -1.6824 -12.5642 
2 5.46113 -3.44378 -12.439 
2 5.40567 0.0555238 -12.4184 
1 -9.12217 -8.93457 -7.1864 
2 -5.34889 -10.706 -8.79567 
1 -5.36117 -8.99587 -10.5789 
1 -7.20025 -9.11194 -8.839 
1 -5.49305 -8.98672 -7.04088 
1 -7.16848 -10.8583 -7.02102 
1 -1.92772 -12.4182 -7.00285 
1 -1.82172 -10.9305 -8.87693 
1 -1.69439 -9.00163 -10.8384 
1 -3.68881 -10.6279 -6.9953 
2 -3.63415 -8.98794 -8.85982 
1 -1.8485 -8.9537 -7.16342 
1 -0.0598626 -8.83182 -9.02978 
1 0.0813342 -10.6797 -10.5987 
2 0.0987449 -10.6343 -7.14524 
1 1.71121 -12.5016 -7.17031 
1 1.82556 -8.69571 -10.9133 
2 1.86358 -10.5407 -8.95302 
1 3.66292 -10.7868 -7.20519 
2 3.62149 -8.7415 -8.93403 
1 1.86229 -8.67098 -7.25477 
1 5.24576 -10.3863 -9.04097 
1 7.01226 -8.83971 -8.98106 
1 5.23375 -8.87852 -7.10779 
1 6.87975 -10.577 -7.20425 
1 5.28304 -8.61994 -10.8889 
1 8.77257 -8.95511 -7.25372 
1 -10.7725 -5.30052 -8.91995 
1 -8.99751 -5.42314 -10.5343 
1 -9.10212 -7.295 -8.94569 
2 -8.92866 -5.35512 -7.16523 
2 -10.9364 -7.18533 -7.12013 
1 -7.19406 -7.23815 -10.5696 
1 -5.4658 -5.55908 -10.8809 
1 -7.13479 -5.39818 -8.95344 
1 -5.34208 -7.27525 -8.95047 
2 -7.18877 -7.2128 -7.10593 
1 -5.35366 -5.34938 -7.19109 
2 -3.58906 -7.22584 -10.8636 
1 -1.86604 -5.44414 -10.7335 
1 -2.03144 -7.21974 -8.96313 
1 -3.74026 -5.47622 -8.99521 
1 -3.68908 -7.23834 -7.04993 
2 -2.01794 -5.49156 -7.16721 
1 0.0304742 -7.12361 -10.7784 
2 -0.103612 -7.16523 -7.20994 
2 -0.047622 -5.41438 -9.05362 
2 3.73404 -6.83389 -10.8434 
1 1.77797 -5.18302 -10.7809 
1 1.81438 -7.03322 -9.1371 
1 3.5555 -5.18128 -8.87883 
1 3.67715 -7.01258 -7.12598 
2 1.78456 -5.26705 -7.10346 
1 7.24156 -7.02177 -10.6478 
1 5.49803 -5.20268 -10.7746 
1 5.37428 -6.89852 -8.96448 
1 7.15494 -5.19764 -8.76809 
1 6.96529 -7.17207 -7.17357 
1 5.27313 -5.19941 -6.99608 
1 8.87751 -5.13422 -10.5728 
1 10.5491 -5.11274 -8.7961 
1 10.7507 -6.96455 -7.0849 
2 8.86781 -7.10317 -8.81255 
1 8.93127 -5.11413 -7.06408 
1 -12.4772 -1.74006 -6.95703 
1 -10.7114 -1.89063 -8.99571 
1 -8.98395 -1.78069 -10.5393 
1 -10.8887 -3.72269 -7.07341 
1 -8.94963 -3.51314 -8.84819 
1 -8.9934 -1.89052 -7.22846 
1 -9.00459 -0.0570114 -8.86599 
1 5.31768 -0.162055 12.6717 
1 -7.24327 -3.67063 -10.7816 
1 -5.34958 -1.85645 -10.6607 
1 -7.27025 -1.94743 -8.98701 
1 -5.41761 -3.54728 -9.04649 
1 -7.03668 -3.73086 -7.10071 
1 -5.48325 -1.73659 -7.15673 
1 -3.60139 -3.65502 -10.7363 
1 -1.83267 -1.78672 -10.7004 
1 -3.67264 -1.80801 -8.9212 
2 -1.92289 -3.45045 -8.88883 
1 -3.80765 -3.59809 -7.12444 
1 -1.79221 -1.71833 -7.17646 
1 -0.0730974 -3.54291 -10.7024 
1 -0.043934 -3.57987 -7.11091 
1 3.47522 0.0190194 14.1783 
1 -0.0845236 -1.82383 -8.83643 
1 3.56169 -3.55526 -10.7225 
1 1.61588 -1.8358 -10.6203 
1 1.67685 -3.53635 -8.93514 
2 3.53549 -1.98004 -8.8872 
1 3.49352 -3.53033 -7.0495 
1 1.60268 -1.78065 -7.16762 
1 -0.0705996 -0.0236433 -7.23206 
1 7.06385 -3.52125 -10.6193 
1 5.32982 -1.68731 -10.726 
1 7.12719 -1.75495 -9.01537 
1 5.3317 -3.44926 -9.03804 
1 6.97846 -3.48721 -7.06505 
1 5.35781 -1.81566 -7.02062 
1 8.96003 -2.19291 -10.9611 
1 10.7915 -3.4372 -7.1603 
1 8.83912 -3.51838 -8.97849 
2 8.81072 -1.75472 -7.15003 
2 10.5422 -1.64631 -8.92683 
1 12.5372 -1.78915 -7.15799 
1 1.77408 -1.98808 14.1389 
1 -5.46887 -12.5776 -3.57014 
1 -1.64311 -14.1197 -5.21548 
1 -3.68728 -12.4889 -5.06636 
1 -1.77547 -12.3337 -3.56072 
1 0.0295729 -12.4591 -5.24022 
2 0.049357 -14.2695 -3.38282 
1 -10.817 -8.94697 -5.26471 
1 -9.0175 -10.6709 -5.3058 
2 -8.96552 -8.84921 -3.52154 
1 -7.25685 -10.8571 -3.49555 
1 -5.49565 -10.6029 -5.23893 
1 -7.18214 -8.85522 -5.29978 
1 -5.4609 -8.87262 -3.50892 
2 -1.82457 -10.683 -5.4214 
1 -3.70977 -10.5049 -3.51366 
1 -3.68076 -8.93572 -5.37514 
2 -1.71833 -8.82639 -3.5884 
1 0.156345 -8.90893 -5.3334 
2 1.94068 -12.576 -3.49182 
1 3.51547 -12.6732 -5.43889 
2 0.0996133 -10.6788 -3.50004 
1 1.99701 -10.7621 -5.45879 
1 3.52672 -10.7523 -3.56499 
1 3.6071 -9.00084 -5.37021 
1 1.96088 -8.94434 -3.53397 
1 5.22928 -12.6866 -3.52417 
2 7.06192 -10.8775 -3.59237 
1 5.22347 -10.8544 -5.30661 
1 6.98769 -8.92179 -5.25478 
2 5.33802 -9.02311 -3.46692 
1 8.69339 -10.9458 -5.53377 
2 8.81435 -8.98393 -3.63889 
1 10.6326 -8.99888 -5.48202 
1 -12.7826 -5.32784 -3.63285 
1 -10.9056 -7.25327 -3.56717 
1 -10.9822 -5.47988 -5.32528 
2 -9.05512 -7.02534 -5.30545 
1 -9.14199 -5.46974 -3.42197 
1 -7.17416 -7.05395 -3.57427 
1 -7.26895 -5.27643 -5.19663 
1 -5.40127 -7.03428 -5.31927 
1 -5.42922 -5.40993 -3.43226 
1 -1.81415 -7.23369 -5.4 
1 -3.57192 -7.18158 -3.65242 
1 -3.57597 -5.38127 -5.305 
1 -1.91258 -5.29033 -3.65684 
2 -0.108485 -5.33021 -5.26418 
1 0.0771811 -7.23833 -3.43413 
2 1.8525 -7.22616 -5.32352 
1 3.64155 -7.1512 -3.57985 
1 3.59381 -5.29811 -5.24823 
1 1.74748 -5.32844 -3.65969 
1 7.02888 -7.19922 -3.5529 
1 5.26627 -7.08888 -5.35448 
1 7.06239 -5.4297 -5.32506 
1 5.36384 -5.37804 -3.54742 
1 10.6725 -7.10317 -3.81201 
1 10.6915 -5.27115 -5.45026 
2 8.86218 -7.16295 -5.53022 
2 8.93101 -5.44596 -3.60218 
1 12.609 -5.28381 -3.41174 
1 -14.2359 -3.37922 -3.31677 
1 -12.7878 -3.49078 -5.32615 
2 -12.3693 -1.70247 -3.47438 
1 -10.6301 -1.87215 -5.4153 
2 -10.8098 -3.62471 -3.56381 
1 -9.0311 -3.71656 -5.36847 
2 -8.97249 -1.84693 -3.49869 
2 -9.13485 0.0607599 -5.47503 
2 -7.16063 -1.89885 -5.38668 
1 -7.26907 -3.72994 -3.48645 
1 -5.4001 -3.69648 -5.26129 
1 -5.39983 -1.89988 -3.54009 
1 1.80378 -3.62863 12.3187 
1 -3.69091 -1.75087 -5.40197 
1 -1.94542 -3.47955 -5.41424 
1 -3.63613 -3.6045 -3.49762 
1 -1.89404 -1.67522 -3.56304 
1 -0.188459 -3.40196 -3.56693 
1 -0.217421 -1.66287 -5.39787 
1 3.44839 -1.77016 12.473 
1 -1.87785 -0.013581 -5.43601 
1 1.61508 -3.52875 -5.21389 
1 3.40541 -1.76067 -5.31524 
1 3.54351 -3.56312 -3.52694 
2 1.75479 -1.73196 -3.59725 
1 7.03579 -1.74612 -5.25827 
1 7.10939 -3.57508 -3.61104 
1 5.36122 -3.53383 -5.17207 
1 5.22871 -1.70282 -3.62534 
1 10.5945 -1.72278 -5.34898 
1 10.6379 -3.46071 -3.5878 
1 8.77766 -3.48371 -5.302 
1 8.80268 -1.83774 -3.58118 
1 12.3743 -1.74614 -3.60364 
2 12.4501 -3.44322 -5.35564 
2 14.1886 -3.16482 -3.38934 
2 14.3219 -0.425473 -3.61193 
1 -5.1931 -12.4851 -0.0471413 
1 -2.04109 -14.2539 -1.79583 
1 -3.51075 -14.287 0.169608 
1 -1.4573 -14.2892 1.37993 
1 -3.57998 -12.4382 -1.81511 
1 0.0286015 -14.5547 -0.492207 
1 2.17933 -14.3373 -1.71333 
1 3.51366 -14.3382 0.33637 
2 1.47331 -14.2262 1.59508 
2 1.79058 -12.4598 0.000101341 
1 5.05122 -14.2052 -1.6957 
1 7.1458 -12.3276 1.71878 
1 -10.8879 -10.3593 0.330794 
1 -10.7137 -9.17085 -1.90156 
1 -8.94287 -10.7718 -1.68808 
1 -8.99769 -8.85048 -0.0020347 
2 -11.0948 -8.56405 1.84642 
2 -8.90485 -10.8343 1.836 
2 -7.09292 -12.6757 1.60939 
2 -7.25655 -12.4646 -1.39514 
1 -7.13687 -10.6096 0.117357 
2 -5.39781 -10.6907 -1.70728 
2 -5.27158 -10.8948 1.64928 
1 -7.22176 -8.97619 -1.79413 
1 -7.17022 -8.83201 1.66972 
1 -5.36316 -8.86011 -0.0677637 
1 -1.76038 -12.4671 -0.120248 
1 -3.50578 -12.4996 1.73926 
2 -0.00394333 -12.4871 -1.77451 
1 -3.43803 -10.6984 -0.101308 
1 -1.91767 -10.6288 -1.82276 
1 -1.80998 -10.4895 1.73666 
1 -3.56165 -8.8821 -1.79643 
1 -3.55997 -8.95345 1.77896 
1 -1.8514 -8.80249 -0.0360748 
1 -0.121093 -12.2812 1.83269 
1 0.095135 -8.87784 1.64702 
1 3.6014 -12.465 1.78575 
1 0.00680049 -10.6276 0.000462855 
1 -0.0278872 -8.91781 -1.77326 
1 3.66707 -12.3842 -1.63507 
1 3.67542 -10.5998 0.0814139 
1 1.8415 -10.6279 -1.68338 
1 1.69241 -10.6317 1.8133 
1 3.62377 -8.81504 -1.81011 
1 3.4092 -8.73645 1.75267 
1 1.8816 -8.95605 0.0322791 
2 7.06471 -12.513 -1.7154 
1 5.31208 -12.5492 0.0801938 
1 6.99137 -10.7463 -0.106875 
1 5.23402 -10.7364 -1.70446 
1 5.40625 -10.6798 1.73299 
1 7.22087 -8.90994 -1.80287 
2 7.1124 -8.93788 1.79342 
1 5.30477 -8.81798 0.0509969 
1 9.0162 -11.9401 -0.00841615 
1 8.84581 -10.8294 -2.03416 
1 10.6775 -9.01101 -2.06852 
1 10.8879 -8.73989 1.72183 
2 8.94197 -9.09047 -0.0650807 
1 9.07222 -10.7386 1.88833 
1 -12.7812 -5.51395 0.170886 
1 -12.4336 -7.04597 -1.90542 
2 -10.8679 -7.16728 -0.158666 
1 -10.805 -5.3197 -1.78296 
1 -10.8537 -5.52305 1.831 
1 -9.04188 -7.02386 -1.76265 
1 -9.06655 -7.21426 1.73166 
1 -9.00491 -5.35805 0.0166831 
1 -7.18102 -7.16902 -0.168328 
1 -7.28316 -5.29834 -1.73841 
1 -5.40032 -7.14384 -1.71989 
2 -7.24409 -5.48478 1.61389 
1 -5.23979 -7.1398 1.69703 
1 -5.31787 -5.41608 -0.0692804 
1 -3.5271 -7.29003 -0.178831 
1 -1.75019 -7.07998 -1.87452 
1 -1.93795 -7.20248 1.72568 
1 -3.56577 -5.38853 -1.81487 
1 -3.56971 -5.36882 1.67326 
2 -1.78503 -5.41958 -0.12775 
1 -0.0269179 -5.35904 1.67976 
1 -0.0748029 -7.1765 -0.0261299 
1 -0.00979211 -5.31638 -1.87934 
1 3.54446 -7.11204 -0.0316593 
2 1.72435 -7.18717 -1.77749 
1 1.76936 -7.00088 1.56172 
2 3.55041 -5.40298 -1.85681 
1 3.54331 -5.30012 1.59446 
1 1.75356 -5.29333 -0.0868759 
1 7.1676 -7.20542 -0.125996 
1 5.35242 -7.129 -1.73446 
1 7.16001 -5.30703 -1.73951 
1 5.26844 -7.19996 1.77969 
2 7.13349 -5.37733 1.73715 
1 5.35033 -5.37178 -0.0805355 
1 10.7678 -7.10249 -0.109401 
1 10.6453 -5.41975 1.6083 
1 10.7251 -5.42644 -1.94427 
1 8.92196 -7.16326 -1.84377 
1 8.96719 -7.14205 1.59469 
1 8.91061 -5.34863 -0.145697 
1 12.4319 -6.98438 1.85434 
1 12.4089 -7.21931 -2.03589 
2 12.4153 -5.34409 -0.393384 
1 -14.2603 -3.3303 0.176611 
2 -14.1453 -1.51735 -1.52004 
1 -14.1954 -1.66173 1.90282 
1 -12.7876 -3.66189 -1.60689 
1 -12.4895 -1.731 0.136336 
1 -12.4148 -3.53465 1.81475 
1 -10.9093 -3.65154 0.0437593 
1 -10.7466 -1.83178 -1.63913 
1 -10.6631 -1.64195 1.70795 
1 -9.01371 -3.547 -1.64027 
2 -9.06525 -3.52707 1.82563 
1 -8.95099 -1.78687 -0.02751 
1 -7.16548 -3.59394 -0.0213884 
1 -7.13963 -1.89947 -1.73139 
1 -7.33249 -1.81108 1.89722 
1 -5.39845 -3.53744 -1.84167 
2 -5.33671 -3.56354 1.71834 
2 -5.41564 -1.67444 -0.116831 
1 -3.763 -3.5828 -0.107487 
1 -3.69136 -1.64321 -1.80624 
2 -1.93026 -3.51675 -1.75303 
2 -3.59952 -1.70256 1.84182 
1 -1.83544 -3.36718 1.72826 
1 -1.82599 -1.68978 -0.00209451 
1 0.0895395 -1.71721 1.80858 
1 -0.122959 -1.7341 -1.71321 
1 0.026187 0.00324619 -0.108825 
1 -0.0255304 -3.45174 0.0456133 
2 3.55855 -3.56687 -0.0483432 
2 1.63078 -3.544 -1.89746 
1 3.52326 -1.7563 -1.85697 
1 1.74441 -3.51305 1.81646 
1 3.53249 -1.74011 1.77644 
1 1.75125 -1.72575 0.0276829 
1 7.16488 -3.65089 -0.0583374 
1 7.03852 -1.65842 -1.91262 
1 7.21114 -1.78959 1.84538 
1 5.30587 -3.6163 -1.86303 
1 5.3493 -3.51465 1.78484 
2 5.51038 -1.83528 0.00469107 
1 -3.34136 -0.101836 14.2783 
1 10.648 -3.47811 -0.119253 
1 10.6828 -1.85378 1.72966 
1 10.6864 -1.69373 -1.75511 
1 9.05963 -3.57483 -1.85235 
1 9.04414 -3.50561 1.77165 
2 8.87743 -1.77876 -0.0547509 
1 12.364 -3.44712 -1.77779 
1 12.4657 -1.81319 -0.0237534 
2 12.4346 -3.75672 1.63656 
2 14.2575 -3.59039 -0.244063 
1 14.5458 -1.54899 -1.53597 
1 14.4295 -1.92887 1.59925 
2 -5.24275 -12.6781 3.76531 
2 -3.20351 -14.307 3.22936 
1 -0.327684 -14.3106 3.436 
1 3.32568 -14.1042 3.41998 
1 3.24427 -12.6099 5.3805 
1 -10.8437 -10.5453 3.28275 
1 -10.7265 -9.02292 5.30767 
2 -8.90025 -8.80181 3.4463 
2 -8.8406 -10.797 5.06088 
1 -7.11002 -10.9206 3.55283 
1 -5.32987 -10.8282 5.26567 
1 -7.18982 -9.00783 5.12312 
2 -5.42066 -8.99348 3.42754 
2 -3.2127 -12.5749 5.34559 
1 -1.84434 -12.3172 3.38164 
1 -1.71019 -10.5398 5.20769 
1 -3.56038 -10.7717 3.47717 
2 -3.58846 -9.04558 5.17364 
1 -1.72803 -8.77228 3.54519 
2 -0.263021 -12.4846 5.16433 
1 1.72415 -12.461 3.61081 
1 0.0211732 -10.5705 3.5369 
1 -0.0248196 -8.66702 5.18143 
1 1.64534 -10.6786 5.27315 
2 3.52798 -10.7477 3.49888 
1 3.41846 -8.85749 5.29089 
1 1.68484 -8.82131 3.5272 
1 5.23954 -12.654 3.69658 
1 7.03241 -10.842 3.7083 
1 5.28135 -10.6774 5.38994 
2 7.16405 -8.7563 5.35196 
2 5.35299 -8.87604 3.56961 
1 9.23925 -10.2832 5.34163 
2 8.94258 -8.78602 3.50359 
1 -12.5123 -5.30008 3.62679 
1 -10.9211 -7.08494 3.84294 
1 -10.7077 -5.31982 5.23058 
1 -8.90704 -7.12075 5.21667 
1 -9.05609 -5.38969 3.56196 
1 -7.13191 -7.09455 3.43304 
1 -7.11224 -5.43913 5.35304 
1 -5.44291 -7.13358 5.34206 
2 -5.34588 -5.35927 3.57346 
1 -1.88517 -7.02019 5.30108 
1 -3.61541 -7.09024 3.52299 
1 -3.57082 -5.26847 5.36759 
2 -1.7855 -5.31732 3.41139 
1 0.0826896 -7.08033 3.39407 
2 -0.0653517 -5.4687 5.4006 
1 1.81268 -7.10212 5.26798 
1 3.4549 -7.13623 3.50477 
1 3.585 -5.32737 5.24831 
1 1.78924 -5.30813 3.45845 
1 7.09297 -7.03634 3.60942 
1 5.21351 -7.09406 5.37038 
2 7.06418 -5.35963 5.37703 
2 5.24195 -5.38347 3.41361 
2 10.7901 -8.4083 5.26037 
1 10.6826 -6.97467 3.41423 
1 10.7053 -5.39255 5.42326 
1 8.92184 -7.07636 5.35617 
1 8.85684 -5.26051 3.53551 
2 12.4382 -5.3945 3.68879 
1 -14.0752 -3.37466 3.57295 
1 -12.514 -3.51573 5.41556 
1 -12.3666 -1.59432 3.52952 
1 -10.9519 -1.75398 5.5899 
1 -10.711 -3.41396 3.60863 
1 -9.01727 -3.51433 5.4498 
2 -9.05907 -1.71601 3.77859 
1 -7.24944 -1.59202 5.61568 
2 -7.15279 -3.61973 3.75582 
1 -5.39376 -3.44629 5.39484 
1 -5.60053 -1.62496 3.63852 
1 -0.0624169 0.0890264 3.70664 
2 -3.67027 -1.70192 5.34258 
2 -1.79174 -3.4322 5.16549 
1 -3.65098 -3.44132 3.60919 
1 -1.78648 -1.71769 3.54586 
1 0.0115416 -1.74597 5.21524 
1 0.0112003 -3.51193 3.45675 
1 1.82656 -3.5004 5.22303 
1 3.71403 -1.75871 5.3949 
1 3.52856 -3.48552 3.49606 
1 1.71597 -1.65525 3.54095 
1 -1.86106 -3.65785 12.3456 
1 7.24411 -1.63074 5.4121 
1 7.11075 -3.4862 3.51153 
1 5.36131 -3.56382 5.33486 
1 5.43255 -1.78912 3.63871 
2 10.8617 -1.90445 5.3575 
1 10.6531 -3.73558 3.40812 
2 8.96819 -3.51228 5.34318 
1 8.96636 -1.87656 3.64896 
1 8.9061 0.0594015 5.34935 
2 12.4748 -1.9822 3.45243 
1 12.8154 -3.74098 5.50303 
1 14.4571 -3.78502 3.41926 
1 14.3975 -1.93143 5.20471 
2 0.113075 -3.71532 14.0269 
1 -9.04516 -9.09916 6.98216 
1 -5.2206 -9.26207 10.5537 
1 -5.18553 -10.6613 8.57012 
1 -7.10489 -10.7984 6.94004 
2 -6.99628 -8.98625 8.74191 
1 -5.31513 -8.93423 6.95384 
1 -1.53119 -12.3829 7.29601 
2 -1.74777 -8.5416 10.7422 
1 -1.74219 -10.5241 8.91179 
1 -3.41261 -10.6584 7.04273 
1 -3.63892 -8.77807 8.81234 
1 -1.83793 -8.67337 7.04364 
1 -0.21636 -10.4313 7.05401 
1 -0.103965 -8.759 8.94378 
1 1.41954 -12.295 7.15184 
1 1.69167 -10.6936 8.70446 
1 3.36218 -10.7272 6.94208 
1 3.47107 -8.98602 8.8937 
1 1.6462 -8.90269 7.08571 
1 1.68035 -8.98309 10.6367 
1 7.10338 -10.5955 6.99295 
1 5.27331 -8.99161 10.5512 
1 5.24009 -10.6518 8.64721 
1 7.14315 -8.90758 8.93647 
1 5.26692 -8.77601 7.10882 
1 8.9393 -8.72029 7.2761 
1 -10.5165 -5.3429 9.0596 
2 -10.5177 -6.99099 6.92953 
1 -8.81729 -7.30217 8.88708 
1 -8.75887 -5.3465 7.13328 
1 -8.58059 -5.36399 10.6866 
1 -6.98138 -7.28993 10.5386 
1 -7.05101 -5.40457 8.82263 
1 -5.35554 -7.17798 8.66801 
1 -7.20615 -7.26941 7.07337 
1 -5.44472 -5.2851 7.01167 
1 -5.57275 -5.3083 10.7925 
2 -3.89882 -7.20369 10.8656 
1 -1.85881 -5.48775 10.793 
1 -2.02999 -6.97264 8.86408 
2 -3.74807 -5.27353 8.98511 
1 -3.65819 -7.03446 7.00718 
1 -1.89294 -5.39388 7.21944 
1 0.0246728 -7.03625 7.1726 
2 -0.231329 -5.38803 9.05694 
1 0.0516785 -7.02497 10.7136 
1 3.60177 -7.20309 10.6144 
1 1.78624 -5.29327 10.5448 
1 1.82596 -7.21966 8.90548 
1 3.58069 -5.40749 9.04613 
1 3.47585 -7.1801 7.09835 
2 1.80196 -5.39206 7.22444 
1 7.06281 -6.99839 10.6157 
1 5.27822 -5.36934 10.7514 
1 5.28799 -7.21878 8.90352 
1 7.10104 -5.36213 8.96737 
1 7.11802 -7.13246 7.19022 
2 5.30298 -5.40214 7.23013 
1 8.88016 -5.22766 10.6483 
1 10.6593 -5.07397 8.79009 
1 10.7134 -6.94594 7.23256 
1 8.87811 -7.00018 8.8894 
1 8.90256 -5.38197 7.12663 
2 -12.2284 -1.69557 7.46698 
1 -9.34468 -1.70968 10.4648 
1 -10.9916 -2.79912 9.25461 
2 -10.8053 -3.84175 7.15048 
1 -8.78131 -3.66683 8.98775 
2 -9.22538 -1.80749 7.42559 
1 -11.3639 -0.477907 9.43884 
1 -7.26631 -3.31506 10.8406 
1 -5.3747 -1.6679 10.8617 
1 -7.26039 -1.56113 9.05347 
2 -5.45206 -3.46608 9.04334 
1 -7.17275 -3.38603 7.18109 
1 -5.41076 -1.70042 7.35472 
1 -3.65988 -3.44473 10.7286 
1 -1.71369 -1.77437 10.7777 
1 -3.56285 -1.70192 8.99344 
2 -1.84925 -3.42356 8.98039 
1 -3.66544 -3.46084 7.15145 
1 -1.81254 -1.69733 7.17716 
2 -0.0358745 -3.46321 7.11207 
1 3.557 -0.0969866 7.144 
1 -0.0842223 -3.45122 10.7565 
1 0.0119043 -1.68257 8.9792 
1 1.80208 -1.81497 7.09202 
2 3.57933 -3.60743 7.12225 
1 1.68274 -1.78284 10.7045 
1 1.63749 -3.50108 8.96563 
1 3.53561 -1.88842 8.97668 
1 3.54252 -3.56162 10.6255 
1 3.6213 -0.0678445 10.6975 
1 -1.64944 -1.79462 14.1871 
1 5.37276 -0.0682672 8.86738 
1 7.15915 -3.52957 10.7137 
1 5.44426 -1.80094 7.09028 
1 6.98973 -3.54062 7.14709 
1 5.29221 -1.76344 10.6295 
1 5.30175 -3.58912 9.10353 
1 7.02047 -1.82025 8.97149 
1 7.29441 -0.00573494 7.27317 
1 7.21003 -0.182786 10.6717 
1 12.1374 0.0383785 9.08874 
2 9.14302 -0.131404 9.03406 
1 10.7891 -3.69287 6.97488 
1 8.75075 -3.5856 8.85419 
1 8.88317 -1.77673 7.20559 
1 8.96471 -1.79236 10.87 
2 10.7469 -2.10737 8.81611 
2 12.755 -1.7793 7.09408 
1 -0.0202323 -8.53016 12.6445 
1 0.0168487 -5.31038 12.2268 
1 -0.0383052 -6.43784 14.3079 
1 -3.80903 -5.33614 12.4185 
1 -1.93542 -6.90664 12.6753 
1 3.53655 -5.29359 12.2982 
1 2.03447 -5.26402 14.1225 
2 1.82455 -7.00343 12.3462 
1 -3.45222 -1.74617 12.446 
1 -5.37228 -3.38121 12.4683 
1 -7.22688 -1.75274 12.4153 
1 0.0868316 -1.64248 12.4863 
1 -5.38331 -0.16518 -8.95452 
1 -3.65911 -0.0628585 -10.6065 
1 3.56032 0.0782319 -10.6579 
2 1.84361 -0.00844601 -8.92652 
1 10.0663 0.0350019 -11.0275 
1 -3.52703 0.018633 -3.64429 
1 3.50591 0.0918768 -3.50272 
1 7.06297 0.102869 -3.61247 
1 5.24629 0.058391 -5.22649 
2 12.4555 -0.0782759 -5.48066 
1 -12.3746 0.171867 -1.68908 
1 -14.4646 0.0810493 0.275342 
1 -5.38295 0.136756 -1.89844 
1 -1.70332 0.0444176 1.69578 
2 1.76597 0.136091 1.91566 
2 3.50899 0.00895526 -0.00599922 
1 1.67552 -0.12192 -1.73889 
2 12.542 -0.0878798 -1.76271 
1 -7.26129 0.0192777 3.64055 
1 -5.51324 0.0872128 5.54511 
1 -1.78499 0.0638764 5.3073 
1 1.85444 -0.151121 5.31019 
1 3.72765 -0.0361593 3.67315 
2 0.0517335 -0.0145837 7.01874 
1 0.0839554 0.0445559 10.6926 
2 10.7417 0.0120501 7.02749 
1 -7.12937 1.59682 -12.3998 
1 -5.54759 3.64802 -12.6204 
2 -1.9081 1.84169 -14.4051 
2 -3.88956 1.77129 -12.6726 
1 -2.00097 3.49102 -12.5096 
2 -0.0949078 1.87863 -12.3492 
1 0.0502217 3.61733 -14.3645 
1 3.51074 3.42615 -14.2204 
1 3.38824 1.73395 -12.6216 
2 1.74298 3.62224 -12.5005 
1 1.63307 1.83327 -14.4724 
1 5.403 1.64141 -14.3458 
1 7.14239 1.8137 -12.6609 
1 5.21179 3.43968 -12.6399 
1 -1.87208 7.12926 -12.5347 
1 -3.65402 5.27823 -12.4795 
1 -0.287965 5.25232 -12.578 
1 1.76999 6.94364 -12.5531 
1 3.67871 5.2163 -12.5159 
1 -12.5549 1.8212 -7.03223 
1 -10.8495 1.85398 -8.91014 
1 -8.86231 1.65483 -10.7767 
2 -8.9458 3.58688 -9.05631 
2 -9.07473 1.92948 -7.14917 
1 -10.864 3.72307 -7.11179 
1 -10.8157 0.0950556 -10.3199 
1 -7.18916 3.49161 -10.7979 
2 -5.37939 1.79282 -10.5892 
2 -7.21447 1.77825 -8.98913 
1 -5.33056 3.61344 -8.83946 
1 -7.15734 3.62024 -7.02403 
2 -5.4511 1.73582 -7.19053 
1 0.0675649 5.20111 12.4005 
1 -7.21181 -0.0357376 -7.18985 
1 -7.15733 -0.237078 -10.6678 
1 -3.67701 3.54849 -10.7051 
1 -1.95359 1.65464 -10.5636 
1 -3.64618 1.78102 -8.88799 
2 -1.82046 3.46038 -8.99799 
2 -3.66123 3.59477 -6.96895 
1 -1.85432 1.78266 -7.09912 
1 -0.0438502 3.69102 -10.6736 
1 -3.64706 -0.0383106 -7.1119 
1 1.85194 5.14423 14.2411 
1 -0.102855 3.52239 -7.08394 
1 -0.0268885 1.79763 -8.97266 
1 -1.83397 -0.0269917 -8.90979 
1 3.67866 3.55589 -10.7969 
1 1.72009 1.74016 -10.6429 
1 3.66153 1.84843 -8.93336 
2 1.8545 3.61997 -8.94762 
1 3.68441 3.62419 -7.08771 
2 1.77495 1.74221 -7.14879 
1 3.66516 5.17898 12.5069 
1 1.90443 7.10774 12.7006 
1 3.64772 -0.0654393 -7.03768 
2 6.95027 3.53119 -10.6707 
1 5.27963 1.79289 -10.6691 
1 7.15175 1.93176 -8.92058 
1 5.29049 3.63607 -8.87317 
1 6.95785 3.77555 -7.07802 
1 5.33038 1.89169 -7.1284 
2 7.32646 0.128087 -10.7762 
2 7.08048 0.0703197 -7.05336 
2 5.37649 0.0111059 -8.90178 
1 9.03516 2.32058 -10.9143 
2 10.6416 1.86865 -9.05997 
1 8.80171 3.58738 -8.77433 
1 8.75237 1.76988 -7.05445 
1 10.6566 3.64884 -7.13019 
2 12.314 1.81077 -7.1239 
1 -3.46033 5.50249 12.7465 
1 8.83812 0.0954962 -8.87985 
1 -10.6268 5.4823 -8.94489 
1 -10.6737 7.08535 -7.04595 
1 -8.85117 7.01716 -9.02286 
1 -8.92405 5.3083 -7.13487 
1 -8.75338 5.40372 -10.8241 
2 -5.58105 5.29904 -10.7683 
1 -7.03109 7.22958 -10.6293 
1 -7.06666 5.21163 -8.89651 
1 -5.42056 7.111 -8.87798 
2 -7.17539 7.11249 -7.13872 
1 -5.45905 5.33044 -7.12902 
2 -3.74737 7.25012 -10.846 
1 -1.90838 5.34546 -10.7605 
1 -1.86231 7.06268 -8.85278 
2 -3.67892 5.38156 -8.88556 
1 -3.80122 7.00393 -7.10524 
1 -1.8018 5.29159 -7.00228 
1 0.0186282 6.9751 -10.7496 
1 -0.0219058 7.06443 -7.07162 
2 -0.0417335 5.29431 -8.80322 
1 3.56289 7.18059 -10.7946 
1 1.90659 5.36806 -10.7205 
2 1.80286 7.05133 -8.85569 
1 3.65779 5.29224 -8.98491 
1 3.58008 7.22098 -7.15783 
1 1.88639 5.3886 -7.04446 
1 7.01311 6.90432 -10.7042 
1 5.23188 5.3794 -10.7915 
1 7.02582 5.35933 -8.8799 
1 5.27978 7.17158 -8.89694 
1 7.09134 7.20382 -7.18065 
1 5.33459 5.48023 -7.1117 
1 8.85959 5.34912 -10.7038 
1 10.586 5.3304 -8.91576 
1 8.79499 7.34809 -8.87051 
1 8.71418 5.41315 -7.15246 
2 10.3765 7.01661 -6.89452 
1 -8.97614 9.0166 -7.24292 
1 -5.38214 8.95659 -10.6298 
1 -5.33552 10.5861 -8.68477 
1 -7.19901 8.91659 -8.96101 
1 -5.46498 8.91636 -7.01206 
1 -7.20477 10.6729 -6.88157 
2 -1.71742 8.75688 -10.6306 
2 -1.8908 10.4656 -8.82566 
1 -3.51969 10.574 -6.97197 
1 -3.62791 8.77838 -8.72037 
1 -1.88798 8.70522 -7.08704 
1 -0.0417382 10.5643 -7.09174 
1 -0.098579 8.81561 -8.85947 
1 -0.240482 12.2657 -8.93888 
1 -1.98921 12.5236 -7.28244 
1 1.67904 8.84115 -10.7371 
1 1.49581 10.703 -9.15986 
1 3.32635 10.8287 -7.20038 
1 3.48136 8.99583 -8.87383 
1 1.6345 8.92629 -7.14285 
2 1.48376 12.5764 -7.12065 
1 5.22936 8.85839 -10.5685 
1 5.12607 10.7353 -8.65818 
1 7.02848 10.7035 -7.12449 
1 6.96363 8.90126 -8.78363 
1 5.30451 9.0129 -7.14586 
1 8.79205 9.0215 -7.09742 
2 -14.1282 3.47442 -3.52887 
1 -14.2754 -0.0161783 -3.50074 
2 -12.5201 3.68672 -5.37273 
1 -12.5251 1.86607 -3.40954 
1 -12.4875 0.0801446 -5.20535 
2 -10.7526 1.90195 -5.29513 
1 -10.6944 3.76015 -3.49764 
1 -8.99596 3.66506 -5.31095 
2 -8.98609 1.90543 -3.53872 
1 -10.7203 -0.019793 -3.39556 
1 -7.17695 1.84343 -5.38471 
2 -7.15215 3.71874 -3.56724 
1 -5.50173 3.6206 -5.2859 
1 -5.39262 1.89533 -3.65984 
1 -5.43108 -0.00068371 -5.41283 
1 -3.64723 1.7586 -5.31734 
1 -1.78869 3.5557 -5.23516 
1 -3.68604 3.52743 -3.50999 
1 -1.90961 1.78816 -3.59009 
1 -0.0974669 3.58914 -3.60584 
1 -0.0263923 1.71408 -5.37218 
1 -1.57017 7.05782 12.6502 
1 3.70229 1.80202 -5.40674 
2 1.73281 3.58137 -5.40415 
1 3.67906 3.69435 -3.59767 
2 1.88119 1.77228 -3.62142 
1 1.79397 -0.0394851 -5.31072 
1 5.44764 3.46924 12.4276 
1 6.95043 1.83488 -5.33455 
1 7.12602 3.62243 -3.45324 
1 5.2907 3.68247 -5.31482 
1 5.41315 1.85205 -3.44548 
1 7.16409 1.60775 12.4148 
1 1.91035 1.82424 14.2237 
1 10.6529 1.79457 -5.28019 
1 10.7162 3.70125 -3.61984 
2 8.91308 3.70858 -5.32414 
1 8.85848 1.7528 -3.65782 
1 12.6008 1.77571 -3.82291 
1 10.6153 -0.0482912 -3.5228 
1 8.82656 -0.0558847 -5.2272 
1 12.5057 3.6888 -5.33483 
1 14.1941 3.49002 -3.56275 
1 1.87832 3.48974 12.4943 
1 -12.6657 5.39902 -3.41582 
1 -10.7559 7.06562 -3.54625 
1 -10.8555 5.45532 -5.34386 
2 -8.93025 7.13069 -5.22001 
1 -9.02001 5.45206 -3.51951 
1 -7.10043 7.03423 -3.39227 
1 -7.20027 5.40143 -5.37608 
1 -5.34033 6.97551 -5.24923 
1 -5.2455 5.41771 -3.50967 
1 -1.83045 7.05708 -5.35162 
1 -3.47662 7.07036 -3.46075 
1 -3.53177 5.33118 -5.2625 
1 -1.76554 5.42665 -3.52929 
1 0.00868924 5.27918 -5.46331 
2 -0.0518555 7.16647 -3.62566 
1 1.69533 7.23119 -5.49831 
2 3.40496 7.26801 -3.61643 
1 3.54982 5.44774 -5.3731 
1 1.73074 5.42273 -3.71108 
1 7.18726 7.19605 -3.56674 
1 7.06479 5.34921 -5.25745 
2 5.43033 7.15542 -5.44737 
1 5.41726 5.36412 -3.47497 
1 10.5762 7.17139 -3.6118 
1 10.7521 5.3339 -5.32578 
1 8.74785 7.11375 -5.26506 
1 8.99452 5.41346 -3.53164 
2 12.3632 5.51121 -3.30769 
1 -10.6767 8.85931 -5.28124 
1 -8.99527 10.4853 -5.15776 
1 -8.86448 8.80386 -3.4219 
1 -10.6298 10.5068 -3.35205 
1 -7.14238 10.6487 -3.45843 
1 -5.40165 10.5804 -5.34546 
1 -7.11822 8.83805 -5.2053 
1 -5.3864 8.78193 -3.55604 
1 -1.70816 10.5982 -5.31129 
1 -3.58748 10.6408 -3.54763 
2 -3.55954 8.83613 -5.34739 
1 -1.91705 9.00741 -3.53392 
1 -0.117303 8.87213 -5.43409 
1 -1.8552 12.477 -3.52868 
1 -3.42827 12.4676 -5.36252 
1 -0.0975624 10.7543 -3.53496 
2 1.63385 10.738 -5.32505 
1 3.58606 10.6656 -3.8201 
1 3.42907 9.01309 -5.60017 
1 1.71964 8.97281 -3.61009 
1 1.65258 12.3926 -3.47333 
1 7.21273 10.812 -3.51248 
2 5.40262 10.8908 -5.52384 
1 7.23153 8.98863 -5.30659 
2 5.31152 9.07813 -3.76503 
1 5.30224 12.6851 -3.71063 
1 10.4579 8.93085 -5.35465 
1 8.69485 10.8662 -5.38647 
1 8.80131 9.04131 -3.54264 
1 -5.27403 12.4143 -3.62735 
1 -0.330801 12.565 -5.39415 
1 -3.32126 14.305 -3.66294 
1 -0.426534 14.3237 -3.68461 
1 3.54079 12.4674 -5.31388 
2 1.65501 14.0642 -5.25108 
1 3.48942 14.3575 -3.65203 
1 3.58945 1.72032 12.372 
1 -14.1854 3.36954 0.122712 
1 -14.2184 1.7344 -1.69546 
1 -14.3167 1.85491 2.03858 
2 -12.4931 3.75148 1.97989 
1 -12.4994 3.71857 -1.67354 
1 -12.3869 1.90658 0.118707 
1 0.00270268 1.77833 12.3016 
2 -8.91556 0.157017 1.87781 
2 -12.4403 0.190915 1.79785 
2 -10.6713 3.77224 0.0368866 
1 -10.6912 1.92857 -1.66392 
1 -10.6981 1.94815 1.99027 
1 -8.92913 3.60511 -1.75768 
1 -8.8828 3.59505 1.84916 
1 -9.10413 1.92909 0.133135 
1 -8.9457 0.0793918 -1.73375 
1 -10.6543 0.0789655 -0.0528335 
1 -7.27575 0.101368 -0.0469068 
1 -7.028 3.63365 0.0512331 
1 -7.234 1.90854 -1.70601 
1 -7.23204 2.01554 1.71779 
1 -5.42466 3.51549 -1.72302 
1 -5.32962 3.54786 1.93311 
1 -5.40623 1.80386 -0.0525945 
2 -5.44178 0.213331 1.74447 
2 0.0787934 3.35088 14.2362 
2 -3.71192 3.59855 0.0177747 
1 -3.63828 1.75206 -1.71148 
2 -1.83021 3.57697 -1.83137 
1 -3.51034 1.75109 1.75955 
1 -1.85553 3.53108 1.79612 
1 -1.76204 1.86014 -0.134566 
1 -3.49608 -0.000340794 -0.0408263 
1 -0.0743406 1.80249 1.80043 
1 -0.0398897 3.57932 -0.0649624 
1 -0.0118756 1.8492 -1.71032 
2 -3.61369 1.7706 12.4498 
1 -1.74284 0.0399143 -1.7991 
2 3.68971 3.67854 0.111016 
1 3.55014 1.80221 -1.8228 
2 1.85174 3.77236 -1.8683 
1 3.74756 1.8228 1.98398 
1 1.87883 3.61466 1.92068 
2 1.77238 1.84955 -0.0981446 
1 -1.74756 1.75278 14.431 
1 -3.52814 3.54943 14.1551 
2 -1.70024 3.60609 12.5284 
1 7.14143 3.63766 0.0700364 
1 7.28119 1.67173 -1.76037 
1 7.17098 1.94457 1.94108 
1 5.4841 3.55467 -1.73012 
1 5.51993 3.65964 1.95659 
2 5.45277 1.8669 0.126982 
1 5.31251 0.0347326 -1.80481 
1 7.13063 -0.00665273 -0.00986788 
1 10.6203 3.6101 0.00867516 
1 10.7152 1.84838 1.71076 
2 10.6935 1.81299 -1.97705 
1 8.97146 3.57883 -1.82611 
1 8.88321 3.64344 1.77689 
1 8.90964 1.87925 -0.0339076 
1 10.6352 0.067206 -0.123162 
2 8.92313 0.0450107 1.77623 
1 12.3119 1.84384 -0.131807 
1 -6.76889 1.56991 12.6459 
1 12.4495 0.0811277 1.60827 
1 8.8276 -0.00528104 -1.91451 
1 12.4098 3.48692 -1.82979 
1 12.5393 3.74012 1.6338 
1 14.0726 3.72382 -0.265833 
2 14.1658 1.66703 -1.85747 
1 14.3024 1.9855 1.59501 
1 14.2602 0.0222585 0.201524 
1 -12.7695 5.43733 0.0602931 
1 -12.5414 7.17502 -1.66027 
1 -12.467 7.18838 1.81836 
1 -10.7825 6.96177 0.172618 
1 -10.6985 5.44574 -1.66599 
1 -10.6867 5.36991 1.89775 
1 -9.03774 7.1399 -1.54348 
2 -8.98002 7.16098 1.82351 
1 -8.86127 5.37825 0.0471669 
1 -7.14919 7.15314 0.0445225 
1 -7.1278 5.34241 -1.72549 
2 -5.29044 7.14919 -1.79736 
1 -7.07841 5.31415 1.73642 
1 -5.31242 7.22309 1.7447 
1 -5.31493 5.39021 0.133614 
1 -3.537 7.16393 0.210543 
1 -1.80565 7.2026 -1.63035 
1 -1.68344 7.24829 1.83159 
1 -3.58809 5.43044 -1.7509 
1 -3.63526 5.37992 1.94457 
2 -1.78616 5.30578 0.11856 
1 -0.0246801 5.41304 -1.64133 
1 0.139467 5.41918 1.893 
1 -0.00784865 7.33326 -0.0230736 
1 3.56235 7.11904 0.0393977 
1 1.74004 7.13433 -1.65157 
2 1.66284 7.25782 1.78488 
1 3.59533 5.50015 -1.85853 
2 3.62095 5.43115 1.95712 
1 1.82151 5.26611 0.218048 
1 7.21783 7.23406 0.0702673 
1 7.18432 5.35081 -1.66106 
2 5.36092 7.13389 -1.80382 
1 7.22362 5.48723 1.81339 
1 5.44822 7.1723 1.9393 
1 5.47475 5.37802 0.141833 
1 10.4296 7.21553 -0.224133 
1 10.6707 5.2587 1.65894 
1 10.4533 5.38653 -1.77453 
1 8.74791 7.24293 -1.82982 
2 9.05609 7.35324 1.78122 
1 8.87363 5.38875 -0.0325818 
2 11.8925 7.34036 1.80569 
1 12.3975 7.30669 -1.6725 
1 12.2402 5.49782 -0.14388 
2 -8.96146 10.5793 -1.68585 
1 -8.94823 10.7317 1.63104 
2 -10.677 8.83836 -1.37279 
1 -10.7599 9.13036 1.59291 
1 -8.86377 8.87925 0.121068 
1 -7.10548 10.6404 0.0542973 
1 -5.34799 10.7118 1.89508 
1 -5.28502 10.6417 -1.81093 
1 -7.14354 8.91519 -1.68256 
1 -7.09056 8.92081 1.93516 
1 -5.40541 8.91622 0.0743193 
1 -7.21898 12.6506 1.60979 
2 -5.36008 12.5217 -0.0267876 
1 -7.17558 12.4153 -1.73215 
1 -3.58758 10.8189 0.0564271 
2 -1.74135 10.8592 1.99521 
1 -1.86337 10.7154 -1.7789 
1 -3.52539 8.94126 -1.59381 
2 -3.56986 9.08111 1.97974 
1 -1.88066 8.99995 0.063986 
1 -3.52442 12.3945 -1.84512 
2 -3.6504 12.587 1.98977 
1 -1.78459 12.3901 -0.117493 
1 0.0520296 10.7115 0.0129941 
1 -0.1133 9.12322 1.8618 
2 -0.0679678 8.97186 -1.80232 
1 3.48752 10.6491 0.0773255 
1 1.89419 10.5852 1.80769 
1 1.69022 10.7164 -1.86014 
1 3.50649 8.94034 -1.77165 