ITEM: TIMESTEP
1590000
ITEM: NUMBER OF ATOMS
1289
ITEM: BOX BOUNDS pp pp pp
-100 100
-100 100
-100 100
ITEM: ATOMS type x y z 
1 -1.73684 -7.19728 -12.2695 
1 -3.57941 -5.34588 -12.529 
1 -0.123602 -5.34526 -12.26 
1 1.65966 -6.91658 -12.3469 
1 3.62035 -5.37888 -12.6537 
1 -7.14932 -1.73486 -12.544 
2 -5.53845 -3.55799 -12.2554 
2 5.12581 -3.29243 12.3943 
2 -1.82025 -1.8859 -14.192 
2 -3.7981 -1.75652 -12.6783 
1 -1.94866 -3.62112 -12.4778 
1 -0.156299 -1.82978 -12.3372 
1 -3.35891 0.11654 -14.4355 
1 0.0711432 -3.68057 -14.073 
2 3.43628 -3.4642 -14.075 
1 1.6653 -3.65402 -12.3847 
1 3.56589 -1.82004 -12.4352 
1 1.49889 -1.90041 -14.2173 
2 1.82218 -0.106773 -12.4235 
2 3.40632 -0.43327 -14.3666 
1 5.4397 -1.8509 -14.4378 
2 7.2107 -1.72166 -12.5896 
2 5.52686 -3.65149 -12.6652 
2 5.23812 -0.0282757 -12.4976 
1 -1.5666 -12.6923 -7.03301 
1 -9.00077 -9.11733 -7.19028 
2 -5.40067 -10.8036 -8.71936 
1 -5.43342 -8.97215 -10.5386 
1 -7.24895 -9.0287 -8.7796 
1 -5.53493 -8.98841 -7.02722 
1 -7.19124 -10.8342 -6.85341 
1 -1.92792 -10.7665 -8.7718 
1 -1.67581 -9.03121 -10.6633 
1 -3.74011 -10.7892 -7.10144 
2 -3.60462 -8.98652 -8.77802 
1 -1.93026 -8.93163 -6.97971 
1 -0.0322808 -10.9641 -10.0549 
2 0.0665588 -10.8131 -7.20687 
1 0.015655 -8.93545 -8.86909 
1 1.65432 -12.5817 -7.1297 
1 1.54977 -8.77813 -10.702 
2 1.98209 -10.6903 -8.93738 
1 3.66932 -10.7173 -7.15064 
2 3.55382 -8.78756 -8.93564 
1 1.91397 -8.94954 -7.09721 
1 5.21863 -10.6156 -9.12369 
1 6.98337 -8.91455 -8.96686 
1 5.34295 -8.91269 -7.13415 
1 6.91782 -10.6023 -7.22616 
1 5.10103 -8.68923 -10.7666 
1 8.83628 -8.99975 -7.22926 
1 -10.7357 -5.17329 -8.96677 
1 -8.89683 -5.33799 -10.465 
1 -9.03196 -7.1144 -8.9072 
2 -8.93727 -5.30068 -7.16856 
2 -10.7535 -7.08348 -7.05273 
1 -7.23243 -7.19659 -10.534 
1 -5.43828 -5.6551 -10.7735 
1 -7.02176 -5.24197 -8.89472 
1 -5.49236 -7.27102 -8.7988 
2 -7.19463 -7.10698 -7.10512 
1 -5.46602 -5.29812 -7.00661 
2 -3.61835 -7.18906 -10.6695 
1 -1.90024 -5.32879 -10.641 
1 -1.94335 -7.11244 -8.90748 
1 -3.80784 -5.34025 -8.83342 
1 -3.75571 -7.11935 -7.16503 
2 -1.99479 -5.26161 -6.97979 
2 -0.104276 -5.24977 -8.84369 
2 -0.164964 -7.32253 -7.09381 
1 -0.0687095 -7.11598 -10.539 
2 3.52062 -7.01774 -10.7675 
1 1.7838 -5.30009 -10.5109 
1 1.75121 -7.02791 -8.8269 
1 3.48478 -5.29257 -8.92776 
1 3.6135 -7.06041 -7.11186 
2 1.82841 -5.1404 -7.13934 
1 6.87074 -7.06267 -10.6209 
1 5.27145 -5.37465 -10.6795 
1 5.33017 -6.94694 -8.86957 
1 6.98284 -5.29443 -8.7869 
1 6.84248 -7.05126 -7.16917 
1 5.15649 -5.20796 -7.12651 
1 8.63992 -5.39853 -10.5848 
1 10.5499 -5.44121 -9.06602 
1 10.6905 -7.08996 -7.2833 
2 8.80242 -7.10625 -8.78505 
1 8.93763 -5.30901 -7.20981 
1 -12.5167 -1.76705 -7.15091 
1 -10.9206 -2.16534 -9.02935 
1 -9.08784 -1.70359 -10.7954 
1 -10.8643 -3.55142 -7.14108 
1 -8.83468 -3.49671 -8.9835 
1 -9.11259 -1.85154 -7.26491 
1 -8.9603 -0.0872252 -8.97376 
1 6.87026 -1.73399 12.549 
1 -7.2234 -3.55473 -10.6929 
1 -5.39949 -1.79107 -10.7883 
1 -7.17426 -1.74797 -8.94066 
1 -5.45407 -3.51625 -8.91744 
1 -7.06692 -3.51008 -7.12043 
1 -5.33777 -1.67194 -7.20712 
1 3.44942 -1.67034 12.5208 
1 1.78919 -3.59243 12.2778 
1 -3.745 -3.59442 -10.7105 
1 -2.03116 -1.71575 -10.6915 
1 -3.61958 -1.66152 -8.84664 
2 -1.92943 -3.50217 -8.83949 
1 -3.76868 -3.35109 -7.1327 
1 -1.91415 -1.57816 -7.05865 
1 -0.195754 -1.64001 -8.91498 
1 -0.184121 -3.54898 -10.7054 
1 -0.167446 -3.39577 -6.90569 
1 1.63381 -1.93738 14.299 
2 -0.191135 -3.72537 13.9148 
1 -1.9291 -3.51653 12.2582 
1 3.52745 -3.72839 -10.7885 
1 1.58007 -1.83172 -10.7881 
1 1.62029 -3.42154 -8.92964 
2 3.41455 -1.90067 -8.95227 
1 3.5038 -3.44549 -7.08317 
1 1.68234 -1.87719 -7.02515 
1 7.115 -3.56457 -10.8487 
1 5.27084 -1.95005 -10.6734 
1 7.01915 -1.77003 -8.98237 
1 5.24172 -3.54496 -8.90774 
1 7.00485 -3.53708 -7.18012 
1 5.31042 -1.70763 -7.04048 
1 -3.44417 -1.7384 12.4901 
1 8.81957 -1.81455 -10.6591 
1 10.7942 -3.7189 -7.09238 
1 8.81515 -3.63886 -8.92688 
2 8.77858 -1.92199 -7.10261 
2 10.5115 -1.78595 -8.95972 
1 12.4318 -1.7982 -7.28516 
1 -1.67128 -1.76678 14.2637 
1 -5.2625 -12.656 -3.40401 
1 -2.02476 -14.2591 -5.00948 
1 -3.71838 -12.5806 -5.27351 
2 -0.0750179 -14.2609 -3.26871 
1 0.0135537 -12.7659 -5.14054 
2 1.82678 -12.6719 -3.48996 
1 5.22108 -12.5121 -3.42084 
1 -10.7585 -8.8783 -5.34342 
1 -9.03475 -10.8839 -5.11934 
2 -9.04697 -8.94502 -3.42782 
1 -7.13955 -10.8207 -3.56147 
1 -5.40462 -10.8158 -5.20273 
1 -7.25907 -9.04352 -5.26446 
1 -5.35602 -8.87647 -3.51721 
1 -1.99934 -12.4748 -3.3688 
2 -1.81722 -10.8946 -5.42746 
1 -3.61484 -10.7454 -3.51911 
1 -3.74395 -8.92559 -5.37405 
2 -1.7995 -8.89354 -3.63975 
1 0.0729539 -9.08022 -5.38428 
1 3.52087 -12.5858 -5.26997 
2 -0.0344336 -10.8171 -3.64952 
1 1.82393 -10.8354 -5.41295 
1 3.50062 -10.784 -3.55102 
1 3.57979 -8.88625 -5.46578 
1 1.86084 -8.95748 -3.61551 
2 7.11499 -10.7216 -3.71095 
1 5.302 -10.6205 -5.32682 
1 7.04311 -8.84178 -5.497 
2 5.18749 -8.9215 -3.58283 
1 8.83159 -10.5898 -5.42221 
2 8.92938 -8.81578 -3.67594 
1 10.6535 -8.88598 -5.49554 
1 -12.7827 -5.39516 -3.58884 
1 -10.7778 -7.09563 -3.58946 
1 -10.7914 -5.27747 -5.34427 
2 -8.90855 -7.06102 -5.28484 
1 -8.95399 -5.20632 -3.62327 
1 -7.13772 -7.01873 -3.46989 
1 -7.16537 -5.23941 -5.29424 
1 -5.45409 -7.18131 -5.2594 
1 -5.33304 -5.36052 -3.52 
1 -1.97242 -7.16193 -5.35572 
1 -3.58638 -7.18286 -3.52928 
1 -3.73288 -5.37722 -5.25284 
1 -1.82694 -5.40546 -3.6054 
1 -0.0472884 -7.17816 -3.66682 
2 -0.0544276 -5.22236 -5.21737 
2 1.70444 -7.12361 -5.33521 
1 3.54071 -7.07021 -3.61201 
1 3.52416 -5.19042 -5.33814 
1 1.9254 -5.27127 -3.51438 
1 7.00381 -7.2048 -3.70066 
1 5.27488 -7.0705 -5.39866 
1 7.0408 -5.30827 -5.58266 
1 5.41735 -5.34932 -3.66362 
1 10.9961 -7.1991 -3.68616 
1 10.8629 -5.49057 -5.41866 
2 8.83705 -7.10778 -5.60394 
2 8.83256 -5.46911 -3.67541 
1 12.7783 -5.08605 -3.66145 
1 -14.3675 -3.40432 -3.41679 
2 -12.6979 -1.63432 -3.75343 
1 -12.8052 -3.68282 -5.47509 
1 -10.7908 -1.82162 -5.4645 
2 -10.8844 -3.58563 -3.60785 
1 -8.98928 -3.60355 -5.39704 
2 -9.07432 -1.77776 -3.58968 
1 -1.66303 -0.0252961 12.4516 
1 -10.7974 0.0198675 -3.71615 
2 -7.08615 -1.75183 -5.36033 
1 -7.08087 -3.51018 -3.62233 
1 -5.27008 -3.53154 -5.34539 
1 -5.36053 -1.71178 -3.45959 
1 0.0545063 -1.7872 12.4081 
1 -5.27641 -3.20685 12.4653 
1 -3.70711 -1.55027 -5.34434 
1 -2.08092 -3.43523 -5.25605 
1 -3.67596 -3.48374 -3.50697 
1 -1.93794 -1.74008 -3.60324 
1 -0.11869 -1.66919 -5.23219 
1 -0.17581 -3.49518 -3.525 
1 -7.09291 -1.62175 12.5005 
1 1.72162 -3.4967 -5.16115 
1 3.49355 -1.61828 -5.42548 
1 3.68798 -3.51754 -3.62984 
2 1.76229 -1.65573 -3.54735 
1 3.64637 -5.36161 12.4385 
1 7.08712 -1.76277 -5.39234 
1 7.07157 -3.55415 -3.6775 
1 5.29741 -3.45155 -5.46277 
1 5.35993 -1.72783 -3.59596 
1 10.5962 -1.75706 -5.28175 
1 10.6525 -3.63028 -3.6442 
1 8.97376 -3.61156 -5.38496 
1 9.01112 -1.82047 -3.55943 
1 12.1961 -1.81927 -3.56961 
2 12.5101 -3.37093 -5.35572 
2 12.5649 -0.195113 -5.43748 
2 14.244 -3.08203 -3.24112 
1 -5.27098 -12.4372 -0.0642016 
2 -6.94045 -12.477 1.62958 
2 -7.17354 -12.3773 -1.58466 
1 -1.83427 -14.2853 -1.38483 
1 -3.65329 -14.0364 0.425897 
1 -1.20035 -14.1825 1.34018 
1 0.396663 -14.6993 -0.431032 
1 2.35423 -14.4898 -1.90896 
1 3.52716 -14.2014 0.455737 
2 1.45724 -14.1079 1.85339 
1 4.97796 -14.1197 -1.5439 
1 7.09818 -12.1275 1.60238 
2 6.93247 -12.2535 -1.54127 
1 -10.6366 -10.7071 -0.0792584 
1 -10.9818 -8.96428 -1.92085 
1 -8.93302 -10.7676 -1.85219 
1 -9.02297 -8.90766 -0.156049 
2 -10.8213 -8.89155 1.8943 
2 -8.88146 -10.6146 1.642 
1 -7.10494 -10.5428 -0.0564707 
2 -5.28168 -10.6245 -1.74142 
2 -5.35015 -10.5103 1.7114 
1 -7.21143 -8.94701 -1.84267 
1 -7.29854 -8.64317 1.55101 
1 -5.42705 -8.67466 -0.210354 
1 -3.5314 -12.5188 -1.52644 
1 -3.53433 -12.1023 1.66156 
1 -1.77695 -12.2563 0.0436572 
1 -3.51108 -10.4085 -0.0101934 
1 -1.79563 -10.595 -1.78528 
1 -1.6828 -10.5054 1.83755 
1 -3.45116 -8.88056 -1.74204 
1 -3.49087 -8.80778 2.00408 
1 -1.69228 -8.9409 0.130097 
1 3.40269 -12.2792 1.79356 
1 0.0401622 -12.287 1.75402 
1 0.201039 -8.82197 1.73214 
2 0.0301242 -12.5409 -1.54738 
1 0.023765 -8.93121 -1.85968 
1 0.0505834 -10.5503 0.019095 
2 1.78567 -12.444 -0.0277606 
1 3.46177 -12.2755 -1.69784 
1 3.6116 -10.5495 -0.0726347 
1 1.73157 -10.5656 -1.77317 
1 1.7439 -10.5474 1.7951 
1 3.56893 -8.87022 -1.89508 
1 3.57386 -8.80395 1.71916 
1 1.94101 -8.94996 0.0304431 
1 5.28475 -12.4447 0.12792 
1 6.97399 -10.411 -0.162967 
1 5.22867 -10.583 -1.74796 
1 5.27997 -10.6033 1.67032 
1 7.15743 -8.89925 -1.8537 
2 7.13817 -8.97698 1.72921 
1 5.26145 -8.73407 -0.182776 
1 8.89413 -11.7633 0.0426369 
1 9.10978 -10.8412 -2.07382 
1 10.9719 -8.97437 -1.91361 
1 10.9257 -8.88919 1.75246 
2 9.04543 -9.12764 -0.0930492 
1 9.05801 -10.7055 2.08851 
1 -12.4542 -5.37979 -0.0400483 
1 -12.4858 -7.11711 -1.8855 
2 -10.7297 -7.22705 -0.125332 
1 -10.8584 -5.24806 -1.76413 
1 -10.774 -5.4071 1.76879 
1 -8.92356 -6.98693 -1.80325 
1 -9.04578 -7.05628 1.80232 
1 -9.08608 -5.32554 -0.12904 
1 -7.20685 -7.11305 -0.151524 
1 -7.21697 -5.36825 -1.80591 
1 -5.36758 -7.12069 -1.85176 
2 -7.25151 -5.43864 1.65888 
1 -5.46783 -7.20082 1.6716 
1 -5.40856 -5.21404 -0.13001 
1 -3.59486 -7.21578 0.0961188 
1 -1.69876 -7.14934 -1.69841 
1 -1.78879 -7.1485 1.7441 
1 -3.55146 -5.43146 -1.87661 
1 -3.74733 -5.47049 1.78308 
2 -1.80966 -5.38124 0.015005 
1 0.0682465 -5.31758 1.72342 
1 -0.00523296 -5.3879 -1.89824 
1 0.105821 -7.15083 0.0328298 
1 3.51773 -7.12876 -0.145497 
2 1.69362 -7.13311 -1.8007 
1 1.90914 -7.03764 1.66953 
2 3.57729 -5.25123 -1.86493 
1 3.70562 -5.36185 1.75017 
1 1.71036 -5.39399 -0.0830772 
1 7.21394 -7.21642 -0.181387 
1 5.35383 -7.05581 -1.83821 
1 7.21241 -5.40475 -1.78184 
1 5.41618 -7.08944 1.58246 
2 7.14314 -5.35459 1.72595 
1 5.34558 -5.36551 -0.143268 
1 10.8312 -7.165 -0.0268456 
1 10.6774 -5.37516 1.71262 
1 10.631 -5.39556 -2.02211 
1 9.05175 -7.26735 -1.7028 
1 8.97919 -7.07167 1.55832 
1 9.03522 -5.40034 -0.0896313 
2 12.3725 -5.29544 -0.136774 
1 12.4702 -7.12704 -1.85821 
1 12.6679 -6.9166 1.53972 
1 -14.2682 -3.51541 -0.027414 
2 -14.3209 -1.64214 -1.82839 
1 -14.244 -1.8472 1.78758 
1 -12.5803 -1.87299 0.0693381 
1 -12.5873 -3.52579 -1.79859 
1 -12.5027 -3.5751 1.79442 
1 -10.7842 -3.46971 -0.128865 
1 -10.8835 -1.76889 -1.80523 
1 -10.85 -1.86726 1.7591 
1 -8.98417 -3.54753 -1.88641 
2 -9.08126 -3.62732 1.70205 
1 -9.07276 -1.7694 -0.00428991 
2 1.7596 -6.90332 12.5996 
1 0.00203212 -5.31324 12.1692 
1 1.84049 -4.92549 14.2702 
1 -7.15973 -3.63512 -0.0972818 
1 -7.28803 -1.86205 -1.76869 
1 -7.24853 -1.84132 1.73254 
1 -5.26834 -3.58798 -1.83397 
2 -5.43516 -3.61205 1.81741 
2 -5.34708 -1.68851 -0.013932 
1 -3.56782 -3.55119 -0.0866646 
1 -3.68324 -1.72373 -1.78317 
2 -1.82767 -3.41582 -1.76834 
2 -3.57935 -1.70429 1.8547 
1 -1.81445 -3.52287 1.68159 
1 -1.76838 -1.63387 0.121318 
1 -0.0513924 -1.64104 -1.76027 
1 -0.0273789 -1.72344 1.7563 
1 0.0534991 -6.50408 14.1788 
1 0.00268217 -3.50338 0.0550254 
2 3.4325 -3.64622 0.0813566 
2 1.62346 -3.46319 -1.8959 
1 3.69868 -1.91834 -1.78422 
1 1.71504 -3.51588 1.78023 
1 3.63854 -1.76096 1.78063 
1 1.76848 -1.76839 0.0619957 
1 -1.70422 -6.99097 12.5541 
1 -3.69334 -5.3674 12.5 
1 -0.00318346 -8.63864 12.6389 
1 7.16669 -3.74525 0.0440288 
1 7.20655 -1.77223 -1.83067 
1 7.13192 -1.8139 1.7122 
1 5.4098 -3.64475 -1.87625 
1 5.36505 -3.59911 1.88095 
2 5.48029 -1.91315 -0.0780593 
2 12.4918 -1.82446 7.13642 
1 10.6122 -3.55275 -0.0587014 
1 10.607 -1.93354 1.78574 
1 10.6253 -1.73654 -1.74324 
1 8.8243 -3.61437 -1.97505 
1 8.87219 -3.60111 1.83701 
2 8.86504 -1.89699 -0.0752874 
1 12.2195 -3.52439 -1.79197 
1 12.3885 -1.79909 -0.13857 
2 12.5036 -0.045111 -1.79866 
1 9.02229 0.0888129 -1.77457 
2 12.4921 -3.56192 1.63595 
2 14.2043 -3.53656 -0.382931 
1 14.6481 -1.41324 -1.33403 
1 14.3948 -1.78067 1.53539 
1 12.4626 0.0144422 8.91193 
2 -5.2663 -12.6118 3.57931 
2 -3.01439 -13.9673 2.94687 
1 -0.416841 -14.0665 3.67345 
2 -3.31347 -12.6194 5.27963 
1 3.638 -13.9589 3.3326 
1 -10.6082 -10.678 3.5146 
1 -10.6337 -8.91645 5.33165 
2 -8.75747 -8.7253 3.62984 
2 -8.8169 -10.7602 5.22479 
1 -6.99279 -10.815 3.59155 
1 -5.40112 -10.8011 5.33249 
1 -7.12425 -9.00153 5.46387 
2 -5.49791 -8.77974 3.54856 
2 0.213883 -12.1532 5.27213 
1 -1.64505 -12.0454 3.53398 
1 -1.6827 -10.5584 5.36019 
1 -3.58143 -10.6933 3.5932 
2 -3.65554 -8.87266 5.37932 
1 -1.75901 -8.81906 3.57308 
1 0.0462533 -8.81747 5.43082 
1 3.33392 -12.4278 5.40345 
1 0.101874 -10.358 3.4885 
1 1.71776 -12.3443 3.47418 
1 1.8521 -10.4152 5.35666 
2 3.62814 -10.7056 3.57417 
1 3.73605 -8.82637 5.45242 
1 1.94039 -8.81545 3.59887 
1 5.44413 -12.4213 3.38502 
1 7.09768 -10.6755 3.57999 
1 5.35789 -10.8822 5.49627 
2 7.16183 -8.8222 5.40079 
2 5.34446 -8.82361 3.48244 
1 8.93962 -10.5598 5.20643 
2 9.0972 -8.80083 3.47233 
2 10.6323 -8.40973 5.49146 
1 -12.5934 -5.42361 3.4396 
1 -10.8846 -7.21781 3.61924 
1 -10.8355 -5.28448 5.23049 
1 -8.92108 -7.04213 5.37473 
1 -9.06125 -5.40583 3.61914 
1 -7.20238 -7.01081 3.60369 
1 -7.31391 -5.33175 5.44261 
1 -5.47908 -7.07737 5.46611 
2 -5.33768 -5.43928 3.63249 
1 -1.78631 -7.17632 5.36303 
1 -3.52612 -7.12751 3.67637 
1 -3.52129 -5.30015 5.40145 
2 -1.7446 -5.40911 3.51057 
1 0.027047 -7.22697 3.50901 
2 -0.0194329 -5.49946 5.38888 
1 1.8234 -7.20622 5.46992 
1 3.65553 -7.10883 3.57212 
1 3.49709 -5.35256 5.4127 
1 1.76893 -5.42444 3.57725 
1 7.18177 -7.15377 3.50059 
1 5.37163 -7.06013 5.46608 
2 7.21878 -5.19258 5.31132 
2 5.29522 -5.33559 3.63597 
1 10.8198 -7.11905 3.36303 
1 10.8446 -5.4582 5.45753 
1 8.89265 -6.90816 5.44948 
1 9.05851 -5.44471 3.55766 
2 12.5999 -5.34255 3.56901 
1 -14.1052 -3.55928 3.43701 
1 -12.3854 -0.171696 5.4593 
2 9.06134 -0.239662 9.02319 
1 -12.6311 -3.39519 5.46709 
1 -12.3482 -1.94105 3.56275 
1 -10.6711 -1.82087 5.39264 
1 -10.7465 -3.68245 3.6693 
1 -8.99856 -3.59607 5.50433 
2 -8.9669 -1.77887 3.66363 
1 8.94738 -1.86039 10.9856 
1 -7.16741 -1.67986 5.435 
2 -7.22977 -3.66082 3.64486 
1 -5.46742 -3.37972 5.39874 
1 -5.50561 -1.66702 3.61936 
2 -3.73205 -1.70044 5.20561 
2 -1.75313 -3.48244 5.29291 
1 -3.64846 -3.57156 3.55484 
1 -1.72669 -1.73985 3.51505 
1 -0.0406491 -3.63889 3.44376 
1 8.9119 -1.83964 7.0946 
2 10.7195 -2.08548 8.93095 
1 0.0352029 -1.7753 5.28628 
1 1.87995 -3.55255 5.14665 
1 3.61412 -1.63078 5.37807 
1 3.60583 -3.51143 3.49169 
1 1.72812 -1.68905 3.4993 
1 1.82074 -0.00961063 5.36767 
1 7.23359 -1.68696 5.36292 
1 7.08571 -3.42182 3.52694 
1 5.21705 -3.45481 5.38157 
1 5.35302 -1.74772 3.59512 
1 10.6997 -3.5928 7.08042 
1 8.73221 -3.39115 8.98861 
2 10.7182 -1.68761 5.26766 
1 10.8262 -3.63845 3.53448 
2 9.05777 -3.62172 5.25677 
1 8.89341 -1.80141 3.5318 
2 12.5126 -1.68101 3.51448 
1 12.6366 -3.57729 5.3527 
1 14.2231 -3.35586 3.47187 
1 14.1846 -1.59541 5.30739 
2 14.2772 0.0526489 3.23231 
1 -9.05394 -8.8239 7.07235 
1 -5.18325 -8.89793 10.4936 
1 -5.32921 -10.661 8.71079 
1 -7.02087 -10.9075 7.0701 
2 -7.12019 -8.94262 8.67182 
1 -5.30703 -8.96234 7.03726 
1 -1.60858 -12.3237 7.17608 
2 -1.8508 -8.98476 10.6623 
1 -1.65992 -10.628 8.91643 
1 -3.55854 -10.7919 6.95496 
1 -3.52491 -9.1239 8.70957 
1 -1.69469 -8.89134 7.09856 
1 0.119688 -9.01919 8.97221 
1 0.0497956 -10.5778 7.1913 
1 1.6325 -12.2966 7.12497 
1 1.75453 -10.8054 9.04717 
1 3.57285 -10.6486 7.11924 
1 3.53467 -8.96683 9.03549 
1 1.86131 -8.97002 7.28898 
1 1.77687 -8.89469 10.7115 
1 7.23898 -10.5727 7.19954 
1 5.39342 -8.8605 10.4855 
1 5.37588 -10.5566 8.73099 
1 7.11491 -8.72348 8.92272 
1 5.43331 -8.78521 7.13898 
1 9.08311 -8.86652 7.34995 
1 -10.5511 -5.48857 9.12524 
2 -10.7014 -6.96931 6.9958 
1 -8.94011 -7.35433 9.03554 
1 -8.87989 -5.39829 7.33535 
1 -8.70661 -5.37362 10.7634 
1 -7.06742 -7.29066 10.6856 
1 -7.0344 -5.4771 8.86811 
1 -5.33079 -7.12425 8.74925 
1 -7.16793 -7.1811 7.08279 
1 -5.45118 -5.27901 6.9429 
1 -5.57313 -5.37653 10.89 
2 -3.57319 -7.15271 10.5694 
1 -1.99567 -5.29504 10.5008 
1 -1.71852 -7.25023 8.87692 
2 -3.81696 -5.262 8.74728 
1 -3.61951 -7.15928 7.12291 
1 -1.84473 -5.42055 7.14673 
1 -0.115885 -7.21216 10.786 
1 0.0318418 -7.16207 7.21768 
2 -0.0272248 -5.39741 9.03586 
1 3.5894 -7.14032 10.7972 
1 1.80514 -5.35271 10.7251 
1 1.73461 -7.20772 9.03625 
1 3.57622 -5.46296 9.13048 
1 3.68358 -7.18224 7.23327 
2 1.88332 -5.41211 7.19353 
1 7.00307 -6.96391 10.6542 
1 5.3687 -5.17232 10.906 
1 5.33814 -7.10637 8.87493 
1 7.05067 -5.16925 9.09971 
1 7.22915 -6.97475 7.23945 
2 5.24389 -5.25205 7.25913 
1 8.72986 -5.13006 10.7678 
1 10.6406 -4.94325 9.20247 
1 10.5399 -6.90501 7.49748 
1 8.95671 -6.96698 9.17345 
1 8.88308 -5.2017 7.25666 
2 -12.012 -1.81095 7.44431 
1 -9.02918 -1.73769 10.6525 
1 -10.8102 -2.98061 9.65392 
2 -10.7536 -3.84041 7.27819 
1 -8.7012 -3.63844 9.01697 
2 -9.18535 -1.7398 7.34175 
1 -11.0334 -0.558539 9.56333 
1 -7.3267 -3.46688 10.8367 
1 -5.4214 -1.70213 10.679 
1 -7.27618 -1.66008 8.92217 
2 -5.5654 -3.38119 8.87548 
1 -7.21215 -3.45421 7.08945 
1 -5.44512 -1.70166 7.14963 
1 -3.71669 -3.46538 10.737 
1 -1.84502 -1.72721 10.5612 
1 -3.52122 -1.81122 8.78718 
2 -1.82921 -3.52239 8.75012 
1 -3.75206 -3.52008 6.97409 
1 -1.73977 -1.66493 7.07166 
1 7.18132 -0.0601801 10.776 
1 0.0485465 -1.77597 8.86559 
2 0.121855 -3.59187 7.03624 
1 5.34332 -1.66545 7.17474 
1 -0.00347758 -3.47784 10.7013 
1 7.06716 -3.39333 7.14948 
1 1.83007 -1.7718 6.98741 
2 3.51606 -3.5018 7.19489 
1 1.84429 -1.75079 10.6992 
1 1.7683 -3.53337 8.94786 
1 3.55095 -1.66899 8.87164 
1 3.58071 -3.50009 10.6041 
1 5.18974 -1.65975 10.7488 
1 5.42081 -3.4181 9.09531 
1 7.01282 -1.65198 8.94534 
1 7.11815 -3.25185 10.6363 
2 -1.93292 0.0698555 -12.3409 
2 -0.103607 -0.0704868 -14.4294 
1 -7.23883 -0.0154337 -7.2133 
1 -0.0157037 0.0836015 -7.14226 
1 3.52234 -0.0236823 -10.6662 
1 3.59607 0.139145 -6.97566 
2 1.73887 -0.0457856 -8.92339 
1 8.91717 -0.00702577 -5.30696 
1 10.6615 0.0701227 -3.61319 
2 14.3112 -0.503166 -3.67925 
1 -14.2235 -0.0681806 0.0571338 
1 7.2636 0.135066 -0.0626735 
1 -7.23442 0.0657078 3.70776 
1 -7.09268 0.308069 7.25635 
2 0.0563835 -0.0559736 7.05631 
1 5.38232 0.109938 8.902 
2 10.735 0.0287793 7.13513 
1 -7.29781 1.81478 -12.4383 
1 -5.43163 3.56922 -12.5954 
2 -1.84496 1.90886 -14.3214 
2 -3.65254 1.95462 -12.6561 
1 -1.80706 3.61493 -12.5634 
2 0.0624717 1.79009 -12.4189 
1 1.79683 7.06345 12.4608 
1 3.58934 5.32509 12.4532 
1 -0.0320701 3.69885 -14.2383 
1 3.22138 3.44892 -14.3031 
1 3.4254 1.71666 -12.3797 
2 1.68164 3.63008 -12.4749 
1 1.7539 1.68042 -14.3942 
1 4.90159 1.71382 -14.2096 
1 6.97527 1.85844 -12.4856 
1 5.14263 3.54218 -12.5012 
1 -1.86239 7.32108 -12.4618 
1 -3.54747 5.29669 -12.4415 
1 -0.0820729 5.55469 -12.5775 
1 1.85728 7.26233 -12.3838 
1 3.43221 5.46838 -12.4945 
1 -12.5831 2.11318 -7.08745 
1 -10.8913 2.11783 -8.92305 
1 -9.10644 1.72453 -10.6341 
2 -8.91501 3.86481 -8.84653 
2 -8.98345 1.87471 -7.22311 
1 -10.8473 3.80602 -6.99526 
1 -11.1137 0.0310775 -9.94674 
1 -7.20611 3.77111 -10.8416 
2 -5.4128 1.86343 -10.7983 
2 -7.21485 1.83854 -8.94997 
1 -5.41582 3.59247 -8.84768 
1 -7.168 3.8287 -6.97054 
2 -5.56029 1.88683 -7.01189 
1 1.77188 5.26165 14.089 
1 -3.65681 3.52533 -10.7646 
1 -1.85502 1.81782 -10.7891 
1 -3.67708 1.77188 -8.8384 
2 -1.8703 3.50872 -9.07931 
2 -3.49611 3.59292 -6.99009 
1 -1.86754 1.72569 -7.16356 
1 -0.119481 3.54703 -7.10333 
1 -0.0433918 1.79028 -8.93732 
1 -1.90003 0.0940246 -8.98187 
1 -1.65881 7.18727 12.5009 
1 -0.186775 3.67667 -10.8903 
1 3.49287 3.75087 -10.7076 
1 1.66172 1.80703 -10.6561 
1 3.40167 1.8832 -9.12708 
2 1.69897 3.67317 -9.01048 
1 3.5831 3.69903 -7.08751 
2 1.81379 1.81857 -7.16996 
1 -3.6357 5.61538 12.7151 
1 0.0749182 5.38409 12.4156 
1 6.97153 1.56995 12.6135 
2 6.9147 3.70318 -10.7906 
1 5.22551 1.85422 -10.7385 
1 7.08244 1.91252 -8.89757 
1 5.17241 3.68421 -8.9328 
1 7.15443 3.58423 -7.22196 
1 5.21099 1.90793 -7.20514 
2 7.05902 0.1148 -7.10521 
2 5.25815 -0.0594213 -8.97191 
1 8.80597 1.89579 -10.7603 
2 10.7671 1.9257 -9.08425 
1 8.91905 3.59544 -8.98296 
1 8.963 1.77592 -7.32895 
1 10.6951 3.54488 -7.11516 
2 12.2906 1.70552 -7.04078 
2 10.6176 -0.107442 -7.21941 
1 8.78471 0.0651373 -8.87332 
1 -10.8969 5.34095 -8.87184 
1 -10.8813 7.06988 -7.05047 
1 -9.19644 7.25016 -8.85313 
1 -9.00067 5.53314 -7.05499 
1 -8.77876 5.53004 -10.5796 
2 -5.4155 5.47363 -10.6985 
1 -7.13726 7.36128 -10.5582 
1 -7.01208 5.52786 -8.81875 
1 -5.36202 7.36971 -8.82892 
2 -7.22657 7.15845 -7.07955 
1 -5.29935 5.43321 -7.0286 
2 -3.48082 7.36348 -10.6187 
1 -1.80428 5.48345 -10.838 
1 -1.93295 7.32867 -8.71438 
2 -3.57805 5.44453 -8.95416 
1 -3.65794 7.17749 -7.03458 
1 -1.88964 5.46408 -6.98993 
2 -0.186366 5.43965 -8.98364 
1 0.0215467 7.18934 -7.07305 
1 -0.156718 7.28626 -10.7041 
1 3.51822 7.2271 -10.6643 
1 1.6 5.49515 -10.7694 
2 1.80575 7.25268 -8.7599 
1 3.48402 5.50502 -8.97422 
1 3.59423 7.29593 -7.08995 
1 1.7971 5.31506 -7.13369 
1 7.03938 7.06269 -10.5203 
1 5.22854 5.4622 -10.8128 
1 7.18395 5.26168 -8.8744 
1 5.37005 7.06648 -8.80729 
1 7.11331 7.1299 -7.21343 
1 5.35103 5.34225 -7.24572 
1 8.88934 5.31134 -10.5733 
1 10.5243 5.25757 -8.93526 
1 9.02396 7.17628 -9.03845 
1 8.8559 5.33901 -7.22788 
2 10.6289 6.99257 -6.95618 
1 -9.03097 8.87492 -6.99401 
1 -5.31998 9.16865 -10.64 
1 -5.28901 10.617 -8.67028 
1 -7.13234 8.99413 -8.87614 
1 -5.3455 8.95832 -7.02535 
1 -7.14818 10.5325 -6.9295 
2 -1.69639 9.09417 -10.4817 
2 -1.7924 10.7385 -8.75276 
1 -3.58632 10.8421 -7.0401 
1 -3.66948 8.89444 -8.75865 
1 -1.88226 8.94516 -7.04236 
1 -0.064973 10.6383 -6.96714 
1 -0.103079 12.5064 -8.55607 
1 -0.0146218 8.98193 -8.72395 
1 1.70516 8.93829 -10.5729 
1 1.73631 10.846 -8.90056 
1 3.54378 10.6631 -7.1376 
1 3.51512 9.06639 -8.98235 
1 1.79822 9.08042 -7.04275 
1 5.37794 8.75692 -10.6824 
1 5.32187 10.5434 -9.05456 
1 7.24623 10.5379 -7.23514 
1 7.15503 8.87704 -8.96475 
1 5.37784 8.84921 -7.11935 
1 8.91482 8.70221 -7.12839 
1 -1.86955 12.5801 -6.94261 
2 1.83074 12.427 -7.03954 
2 -14.3158 3.2169 -3.31901 
1 -14.2891 0.299695 -3.59314 
2 -12.7048 3.66457 -5.12984 
1 -12.4309 1.75457 -3.50426 
2 -10.7918 1.95594 -5.43254 
1 -10.7425 3.63035 -3.38092 
1 -9.05313 3.66938 -5.35462 
2 -9.11076 1.78873 -3.43395 
1 -12.5476 0.0743825 -5.50833 
1 -7.31822 1.73975 -5.39612 
2 -7.25455 3.72953 -3.65559 
1 -5.46377 3.59504 -5.26323 
1 -5.41317 1.85564 -3.47481 
1 -3.71587 1.81514 -5.12612 
1 -1.77468 3.57352 -5.36179 
1 -3.62436 3.6998 -3.59657 
1 -1.86899 1.77603 -3.61419 
1 0.00026162 1.77263 -5.33062 
1 0.0401096 3.65402 -3.61901 
1 -1.90462 0.122755 -5.31477 
1 -3.68715 0.054093 -3.43086 
1 3.66108 1.71242 -5.31749 
2 1.76682 3.55757 -5.29313 
1 3.67946 3.4722 -3.65576 
2 1.8231 1.61788 -3.53439 
1 3.68164 -0.0895952 -3.41153 
1 7.20117 1.84047 -5.34283 
1 7.19214 3.59519 -3.50669 
1 5.38408 3.59795 -5.40433 
1 5.48527 1.75007 -3.55397 
1 7.21517 -0.00448411 -3.59805 
1 5.36687 0.0134254 -5.27882 
1 10.6299 1.70064 -5.41024 
1 10.7993 3.48195 -3.666 
2 8.96754 3.56365 -5.40493 
1 9.00809 1.84233 -3.56096 
1 5.44836 3.54855 12.6155 
1 0.1358 -0.00786816 14.288 
1 12.626 3.44744 -5.34105 
1 12.6387 1.61176 -3.69702 
1 14.2175 3.47769 -3.58729 
1 3.29316 -0.063886 14.2284 
1 -12.6698 5.42386 -3.36017 
1 -10.8467 7.18288 -3.35639 
1 -10.9344 5.40711 -5.03834 
2 -8.98419 7.1834 -5.1022 
1 -9.0432 5.47011 -3.46306 
1 -7.1058 7.19629 -3.52003 
1 -7.11236 5.49565 -5.25669 
1 -5.44032 7.20429 -5.25928 
1 -5.31383 5.34638 -3.60254 
1 -1.73278 7.10393 -5.29997 
1 -3.56437 7.12795 -3.61125 
1 -3.50176 5.43492 -5.40606 
1 -1.82701 5.36926 -3.52192 
1 -0.0725447 5.3633 -5.33779 
2 -0.0127165 7.01356 -3.58283 
1 1.73657 7.20509 -5.49926 
2 3.51633 7.26704 -3.5815 
1 3.51182 5.48273 -5.28985 
1 1.87161 5.43717 -3.6339 
1 7.17117 7.00898 -3.61265 
1 7.10554 5.29282 -5.35884 
2 5.39245 7.03347 -5.42701 
1 5.36853 5.36128 -3.57018 
1 10.6751 7.08361 -3.61931 
1 10.8365 5.24219 -5.35981 
1 8.78159 7.06995 -5.40959 
1 9.00658 5.3074 -3.71468 
2 12.4928 5.29229 -3.60424 
1 -10.7893 8.91023 -5.18455 
1 -8.97621 10.7323 -5.17451 
1 -8.86509 8.8825 -3.28568 
1 -10.5977 10.5763 -3.46347 
1 -7.38959 10.8281 -3.30773 
1 -5.35729 10.7106 -5.2535 
1 -7.12217 8.9731 -5.10929 
1 -5.3555 9.04356 -3.33806 
1 -5.56288 12.3905 -3.44068 
1 -1.85819 10.6992 -5.18306 
1 -3.63365 10.6822 -3.49254 
2 -3.68731 8.94882 -5.32024 
1 -1.92699 9.00555 -3.41368 
1 -0.0386521 8.88917 -5.2918 
1 -0.100826 10.6517 -3.46067 
2 1.68201 10.8011 -5.24096 
1 3.60328 10.6199 -3.51136 
1 3.59088 9.01361 -5.37894 
1 1.78001 9.00502 -3.54349 
1 1.73959 12.3685 -3.32208 
1 7.37775 10.7379 -3.29163 
2 5.60672 10.7218 -5.40274 
1 7.08922 8.86308 -5.32368 
2 5.44393 8.97209 -3.60122 
1 10.4776 8.78211 -5.25416 
1 8.68338 10.5068 -5.29605 
1 8.98695 8.8178 -3.5012 
1 -1.80481 12.3632 -3.39809 
1 -3.49667 12.5126 -5.10441 
1 -0.110747 12.377 -5.30622 
1 -3.67461 14.3536 -3.40846 
1 -0.0904906 14.1287 -3.44264 
1 3.61324 12.3291 -5.23532 
2 1.88448 13.9488 -5.08955 
1 3.57382 14.2949 -3.31896 
1 5.37703 12.4104 -3.32961 
1 -14.3578 3.36059 -0.1364 
1 -14.4742 1.50051 -1.62737 
1 -14.4607 1.59811 1.84817 
1 1.79306 3.45697 12.5095 
1 -12.5716 -0.0147202 -1.847 
2 -12.5149 3.46668 1.79472 
1 -12.66 3.42825 -1.79467 
1 -12.4807 1.72489 0.0852079 
2 -10.9343 3.61583 -0.0238445 
1 -10.8049 1.75889 -1.74288 
1 -10.6752 1.85031 1.88932 
1 -9.00239 3.68699 -1.72753 
1 -9.0496 3.51046 1.81023 
1 -8.94023 1.81967 -0.0379826 
1 -10.7815 -0.0335829 0.0459135 
1 -7.1879 3.71355 0.107886 
1 -7.25251 1.8794 -1.77132 
1 -7.28197 1.92139 1.76258 
1 -5.48997 3.61941 -1.80016 
1 -5.4363 3.60925 1.79447 
1 -5.53816 1.76893 0.0666497 
1 -7.23306 0.087247 -0.162408 
2 -5.58284 0.132948 1.88175 
1 -5.35064 0.0486936 -1.77064 
2 -3.66529 3.58211 0.0860982 
1 -3.67134 1.84923 -1.77282 
2 -1.81998 3.49025 -1.77482 
1 -3.58859 1.84701 1.73532 
1 -1.73734 3.6804 1.78515 
1 -1.73056 1.77904 -0.0143867 
1 -3.55835 0.108602 0.0288572 
1 -0.00215587 1.91655 1.83446 
1 0.011814 1.57022 -1.75961 
1 -0.0921587 -0.037208 -0.00457722 
1 -1.81057 0.0747296 1.8981 
1 -0.0509091 3.62172 -0.062445 
2 3.53008 3.67923 -0.0763129 
1 3.66428 1.80179 -1.93748 
2 1.82251 3.68095 -1.95249 
1 3.61236 1.87086 1.82386 
1 1.69763 3.64379 1.69801 
2 1.73905 1.83173 -0.0184706 
1 3.56029 1.8348 12.4453 
1 7.13007 3.6875 -0.126319 
1 7.24111 1.81876 -1.88044 
1 7.15363 1.8748 1.84408 
1 5.3437 3.7376 -1.93699 
1 5.41555 3.61176 1.84965 
2 5.4533 1.93685 -0.025867 
1 5.53689 -0.0323577 -1.83162 
2 8.9096 0.0148318 1.67812 
1 10.6693 3.58535 -0.0826106 
1 10.7548 1.92304 1.66352 
2 10.7117 1.81859 -1.8661 
1 8.89146 3.58343 -1.78393 
1 8.92575 3.62087 1.7357 
1 8.86825 1.90608 0.0430662 
1 12.4957 3.53697 -1.91662 
1 12.4146 1.9201 0.0456939 
1 12.4627 -0.0196691 1.50306 
1 10.6985 0.127544 -0.0327074 
1 12.5085 3.67885 1.70689 
1 14.1125 3.53309 -0.133022 
2 14.2987 1.67709 -1.8891 
1 14.3436 2.12452 1.78306 
1 -12.6125 7.22794 -1.78803 
1 -12.732 5.3694 -0.120246 
1 -12.4591 6.83652 1.75037 
1 -10.8429 7.04092 -0.0953358 
1 -10.8384 5.38844 -1.69905 
1 -10.8128 5.23176 1.92154 
1 -8.80692 7.05613 -1.71759 
2 -9.13278 6.93712 1.81725 
1 -8.96549 5.4535 0.0484539 
1 -7.11845 7.08096 0.155586 
1 -7.15878 5.32688 -1.75846 
2 -5.34697 7.11853 -1.82042 
1 -7.14282 5.28245 1.87489 
1 -5.35543 7.05114 1.82636 
1 -5.40693 5.3443 0.0517367 
1 -3.61646 7.13785 0.0407623 
1 -1.9003 7.17043 -1.81699 
1 -1.74867 7.19485 1.8113 
1 -3.60633 5.33311 -1.68558 
1 -3.57 5.34142 1.91275 
2 -1.72689 5.47056 0.0727727 
1 -0.0503208 5.47679 -1.72522 
1 0.0342954 7.20465 0.118918 
1 0.00508766 5.37861 1.86408 
1 3.51973 7.16835 0.0314345 
1 1.72371 7.05225 -1.57882 
2 1.77202 7.31205 1.9691 
1 3.60545 5.47068 -1.86984 
2 3.63888 5.34326 1.82626 
1 1.86762 5.41468 -0.0524038 
1 7.19342 7.03223 0.0422033 
1 7.22127 5.35919 -1.77459 
2 5.41475 7.12154 -1.7437 
1 7.18088 5.29561 1.70987 
1 5.44607 7.06621 1.80139 
1 5.41178 5.31981 0.0484827 
1 10.6385 6.92044 -0.288144 
1 10.807 5.28732 1.69368 
1 10.6622 5.32221 -1.98239 
1 8.93611 7.01631 -1.90449 
2 9.25704 7.27503 1.62919 
1 8.94646 5.19336 0.00602845 
2 12.0404 7.30783 1.73975 
1 12.4946 5.32369 -0.0938231 
1 12.5264 7.17977 -1.77753 
2 -8.98781 10.7667 -1.48685 
1 -9.13699 10.6826 1.63399 
2 -10.757 8.93157 -1.58422 
1 -10.895 8.8511 1.55402 
1 -8.86939 8.7943 -0.0116924 
1 -7.14773 10.6447 0.0800135 
1 -5.30393 10.7242 1.89993 
1 -5.4375 10.6941 -1.72182 
1 -7.09563 8.90467 -1.60118 
1 -7.2437 8.92103 1.79871 
1 -5.40064 8.96641 0.137334 
1 -7.42822 12.5237 -1.46435 
1 -3.65813 10.6638 0.040741 
2 -1.87244 10.9175 1.79608 
1 -1.94037 10.6799 -1.72169 
1 -3.67889 8.84601 -1.66462 
2 -3.61337 8.91232 1.8451 
1 -1.75785 8.91247 0.014932 
1 -3.60053 12.4056 -1.82735 
1 -0.0790443 10.662 0.0794394 
1 -0.181378 12.3665 -1.71814 
2 -3.65536 12.6702 2.06053 
1 -0.00115088 9.06087 1.85583 
2 -0.0100882 8.87831 -1.65435 
1 3.64041 10.6051 0.248102 
1 1.80255 10.606 1.86266 
1 1.74278 10.7301 -1.62734 
1 3.36506 8.9351 -1.64453 
1 3.77785 8.78475 1.91424 
1 1.79092 9.03037 0.155624 
1 0.0777134 12.3854 1.83353 
2 1.73158 12.3115 0.0228421 
1 7.13397 10.5379 -0.0013803 
1 5.46675 10.6198 1.87812 
2 5.33585 10.6471 -1.56473 
1 7.28084 8.8759 -1.81748 
1 7.19626 8.92701 1.87091 
2 5.50538 8.79978 0.117323 
2 7.29332 12.2824 1.74281 
1 7.17053 12.3165 -1.49404 
1 10.6831 8.85599 -1.97387 
2 11.058 9.33565 0.350008 
2 9.17509 10.4401 1.7201 
1 9.11415 10.7783 -1.44829 
1 8.7931 8.84822 -0.189795 
2 -5.38235 12.4075 0.155451 
1 -7.46837 12.4322 1.66387 
2 -5.41 14.0778 -1.7695 
1 -1.95182 12.4636 0.0405868 
2 -3.68304 14.251 -0.0504336 
1 -1.89469 14.4932 -1.69648 
2 -1.76589 14.2008 1.87919 
2 3.61917 12.4128 -1.68468 
2 -0.00971449 14.166 0.12475 
1 3.53869 12.4643 2.00939 
1 1.70322 14.2834 -1.75295 
1 3.46249 14.2406 0.085394 
1 1.90845 14.1667 1.84974 
1 5.28305 12.4587 0.362513 
1 -14.3069 3.20685 3.70149 
1 -12.4221 1.78146 3.77519 
1 -12.4894 3.54716 5.4961 
1 -10.7414 1.84068 5.40702 