ITEM: TIMESTEP
1720000
ITEM: NUMBER OF ATOMS
1289
ITEM: BOX BOUNDS pp pp pp
-100 100
-100 100
-100 100
ITEM: ATOMS type x y z 
1 -2.02984 -7.02378 -12.558 
1 -3.61864 -5.13101 -12.605 
1 -0.0940292 -5.2857 -12.5346 
1 1.51416 -7.1521 -12.4764 
1 3.27916 -5.22318 -12.7734 
1 -7.38518 -1.85994 -12.4663 
2 -5.37471 -3.5917 -12.3786 
1 -5.55532 -0.113228 -12.3632 
2 -1.96855 -1.63843 -14.4403 
2 -3.71611 -1.7624 -12.5312 
1 -1.88431 -3.47 -12.4595 
1 -0.0887087 -1.77673 -12.5372 
1 -3.81053 0.0527228 -14.1791 
1 -0.342844 -3.56364 -14.2508 
2 3.31026 -3.18475 -14.2947 
1 1.55224 -3.50546 -12.5121 
1 3.526 -1.70233 -12.4592 
1 1.52586 -1.57883 -14.4516 
2 3.40669 0.0761131 -14.262 
1 5.40229 -1.59873 -14.1425 
2 7.19721 -1.82614 -12.4567 
2 5.21992 -3.59415 -12.6338 
2 5.30778 0.110068 -12.2512 
1 -1.76997 -12.5963 -7.24269 
1 1.74124 -12.5237 -7.14823 
1 -8.946 -8.7881 -6.92854 
2 -5.56739 -10.7969 -8.67484 
1 -5.45097 -9.11055 -10.4532 
1 -7.10806 -8.92555 -8.76249 
1 -5.42856 -8.96545 -7.05868 
1 -7.30974 -10.5737 -6.92148 
1 -2.09091 -10.9869 -9.0698 
1 -1.95183 -8.99196 -10.8026 
1 -3.72344 -10.7553 -7.14484 
2 -3.58979 -8.94525 -8.82382 
1 -1.89958 -9.0855 -7.17589 
1 -0.166228 -8.87475 -9.06089 
1 -0.132684 -10.7142 -10.5006 
2 -0.0193414 -10.696 -7.23135 
1 1.7196 -9.10535 -10.8949 
2 1.72297 -10.8044 -8.97751 
1 3.41556 -10.707 -7.2369 
2 3.56725 -8.84761 -8.9593 
1 1.73742 -8.84492 -7.2765 
1 5.27417 -10.6078 -8.96182 
1 7.05913 -8.71026 -9.04182 
1 5.37006 -8.76027 -7.11287 
1 7.17542 -10.6923 -7.31607 
1 5.33405 -8.6894 -10.8902 
1 8.89156 -8.90038 -7.29114 
1 -10.8083 -5.11732 -8.92896 
1 -8.94784 -5.26344 -10.6037 
1 -8.98841 -7.04864 -8.8967 
2 -8.89391 -5.36102 -7.0923 
2 -10.6585 -7.08444 -7.02231 
1 -7.08907 -7.12823 -10.4036 
1 -5.55891 -5.29415 -10.7392 
1 -7.16199 -5.29324 -8.8374 
1 -5.35491 -7.03637 -8.85416 
2 -7.0622 -7.20322 -7.05942 
1 -5.2898 -5.32102 -7.08697 
2 -3.62676 -7.20028 -10.7405 
1 -1.84491 -5.27757 -10.6793 
1 -1.91024 -7.16702 -8.9911 
1 -3.60758 -5.35169 -8.98522 
1 -3.57555 -7.19695 -7.1674 
2 -1.83367 -5.31053 -7.14819 
2 -0.0490265 -7.21832 -7.25926 
1 -0.14452 -7.18404 -10.8047 
2 -0.0589101 -5.34081 -9.01313 
2 3.46608 -7.07405 -10.9185 
1 1.55045 -5.2687 -10.8165 
1 1.75425 -7.16051 -9.16795 
1 3.45957 -5.19749 -9.00327 
1 3.60758 -7.09019 -7.15841 
2 1.80433 -5.23363 -7.14793 
1 7.05808 -6.78725 -10.6989 
1 5.23025 -5.33387 -10.8508 
1 5.26246 -6.99155 -8.97376 
1 7.10383 -5.16119 -8.83004 
1 7.08875 -7.05531 -7.15394 
1 5.31714 -5.19912 -7.22281 
1 8.8185 -5.09442 -10.7262 
1 10.6035 -4.90532 -8.95581 
1 10.6715 -6.70056 -7.19508 
2 8.85339 -6.92924 -8.85784 
1 8.81146 -5.03989 -7.13966 
1 -12.5344 -1.85819 -6.8621 
1 -10.7783 -1.91458 -8.82375 
1 -8.99925 -1.71253 -10.6167 
1 -10.6387 -3.62216 -6.85863 
1 -8.92713 -3.50356 -8.82378 
1 -8.7873 -1.81466 -7.02452 
1 -8.83207 -0.160436 -8.88919 
1 -7.36415 -3.59713 -10.7823 
1 -5.56954 -1.87837 -10.58 
1 -7.11328 -1.88812 -8.82358 
1 -5.37488 -3.57465 -8.97803 
1 -7.0398 -3.5437 -7.02973 
1 -5.38973 -1.64948 -7.15144 
1 -7.32244 -0.0794714 -10.6907 
1 -5.47137 -0.0178279 -8.91671 
1 -3.6439 -3.56595 -10.6605 
1 -1.86832 -1.74284 -10.768 
1 -3.78439 -1.71151 -8.93483 
2 -1.99015 -3.46766 -9.0018 
1 -3.72577 -3.4087 -7.0867 
1 -1.8702 -1.72186 -7.12699 
1 -0.188929 -1.71667 -8.95101 
1 -0.137827 -3.48399 -10.7456 
1 -0.1217 -3.46695 -7.1474 
1 -3.63426 0.0293002 -10.7448 
1 3.50969 -3.55332 -10.8679 
1 1.62016 -1.72938 -10.7911 
1 1.64885 -3.56147 -9.00229 
2 3.47802 -1.90854 -8.93095 
1 3.64576 -3.43178 -7.07884 
1 1.69977 -1.80059 -7.08749 
1 3.45898 0.0404182 -7.14877 
1 3.50109 0.00622763 -10.6934 
2 1.70092 -0.0441942 -8.79218 
1 7.00394 -3.57667 -10.6921 
1 5.28739 -1.81387 -10.7343 
1 7.13207 -1.85446 -9.01018 
1 5.19522 -3.54171 -9.07722 
1 6.88355 -3.4279 -7.11553 
1 5.28383 -1.71788 -7.07384 
2 7.28695 0.000430799 -10.6963 
2 7.12558 0.0932737 -7.00688 
1 8.9033 -1.96019 -10.6551 
1 10.8442 -3.52041 -7.04942 
1 8.78584 -3.4862 -8.92344 
2 8.8171 -1.86593 -7.04429 
2 10.806 -2.03863 -8.92537 
1 8.77783 -0.0167682 -8.84152 
1 10.3974 -0.095127 -10.6312 
1 12.7746 -1.669 -7.26759 
1 -5.18604 -12.4098 -3.44564 
1 -1.71629 -14.2123 -5.20942 
1 -3.63118 -12.662 -5.44978 
2 0.0876244 -14.0117 -3.58489 
2 2.02833 -12.4609 -3.65517 
1 0.0784388 -12.5689 -5.50394 
1 3.66062 -12.5988 -5.4611 
1 5.18822 -12.4399 -3.66636 
1 -10.741 -8.99157 -5.17753 
1 -8.93321 -10.5394 -5.18934 
2 -8.8805 -8.98974 -3.35881 
1 -7.03393 -10.7564 -3.35481 
1 -5.45551 -10.7657 -5.2432 
1 -6.99755 -8.82316 -5.12482 
1 -5.29069 -8.85181 -3.49234 
1 -1.97495 -12.5475 -3.5748 
2 -1.9346 -10.8423 -5.41406 
1 -3.59418 -10.7399 -3.67792 
1 -3.73336 -8.95434 -5.43541 
2 -1.91768 -8.924 -3.56952 
1 -0.0552698 -9.06241 -5.46073 
2 -0.0348576 -10.7039 -3.7114 
1 1.8152 -10.6411 -5.38813 
1 3.73429 -10.674 -3.62041 
1 3.63511 -9.00668 -5.56056 
1 1.96352 -8.94943 -3.58977 
2 6.96286 -10.8246 -3.71607 
1 5.30328 -10.7998 -5.5883 
1 7.12883 -8.79759 -5.54376 
2 5.40065 -8.83885 -3.70535 
1 9.0082 -10.5539 -5.44732 
2 8.72919 -8.85043 -3.7027 
1 10.6862 -8.5565 -5.53581 
1 -12.4759 -5.38849 -3.44846 
1 -10.7172 -7.14339 -3.3837 
1 -10.9083 -5.39324 -5.26721 
2 -8.92442 -7.11235 -5.19213 
1 -8.80712 -5.36366 -3.46591 
1 -7.1305 -7.09669 -3.33941 
1 -7.10899 -5.28926 -5.19064 
1 -5.42336 -7.09606 -5.19838 
1 -5.21811 -5.3617 -3.56977 
1 -1.69162 -7.43459 -5.5213 
1 -3.63423 -7.16912 -3.66865 
1 -3.52691 -5.30586 -5.35366 
1 -1.73665 -5.42123 -3.54276 
2 -0.0999169 -5.30854 -5.327 
1 -0.0533373 -7.17375 -3.72255 
2 1.85481 -7.23037 -5.39142 
1 3.71094 -7.07676 -3.49709 
1 3.58692 -5.3148 -5.38479 
1 1.741 -5.24114 -3.62343 
1 7.15698 -7.02107 -3.62384 
1 5.32652 -7.01196 -5.30039 
1 7.10587 -5.22902 -5.4859 
1 5.44743 -5.2507 -3.64115 
1 10.7434 -7.01574 -3.61987 
1 10.773 -5.12535 -5.22575 
2 8.79264 -6.83759 -5.58355 
2 8.83776 -5.24161 -3.56436 
1 12.4642 -5.20902 -3.41078 
1 -14.1001 -3.6188 -3.42611 
1 -12.6432 -3.5207 -5.2225 
2 -12.3733 -1.75263 -3.42675 
1 -10.4911 -1.8068 -5.28607 
2 -10.6665 -3.63581 -3.47566 
1 -8.82973 -3.59817 -5.26681 
2 -8.85237 -1.83938 -3.40058 
2 -7.01916 -1.75556 -5.28853 
1 -7.09541 -3.59495 -3.44095 
1 -5.29816 -3.56179 -5.20338 
1 -5.25954 -1.89952 -3.37678 
1 -3.66683 -1.74598 -5.3793 
1 -1.84072 -3.46085 -5.42605 
1 -3.47132 -3.50962 -3.56866 
1 -1.79259 -1.80714 -3.58125 
1 -0.0414967 -3.565 -3.66172 
1 -0.0577331 -0.0834851 -3.63038 
1 -0.102712 -1.73769 -5.42006 
1 1.71122 -3.50415 -5.41507 
1 3.50214 -1.71898 -5.48342 
1 3.57155 -3.67254 -3.54391 
2 1.7393 -1.82324 -3.7412 
1 7.06565 -1.68931 -5.32405 
1 7.04848 -3.36478 -3.63642 
1 5.28732 -3.50053 -5.35384 
1 5.24356 -1.762 -3.57403 
1 10.6128 -1.6854 -5.42669 
1 10.5533 -3.40062 -3.50614 
1 8.80186 -3.48111 -5.18664 
1 8.87899 -1.64122 -3.47478 
1 12.1846 -1.70021 -3.40025 
2 12.4516 -3.24444 -5.15085 
2 14.0556 -3.2622 -3.02218 
2 12.5242 0.0272758 -5.31775 
2 -7.13184 -12.4843 1.45604 
1 -5.16541 -12.6929 0.24193 
1 -1.84378 -14.2645 -1.81267 
1 -3.32286 -14.463 0.291873 
1 -1.34521 -14.3051 1.75446 
1 -3.5413 -12.5581 -1.69493 
1 2.09923 -14.2624 -1.95025 
1 0.261535 -14.2299 -0.232714 
1 3.4235 -14.3618 0.0525131 
2 1.54506 -14.0369 1.78784 
2 -0.199533 -12.534 -1.76276 
1 4.9913 -14.1557 -1.83469 
1 -10.7015 -10.7015 -0.0381499 
1 -10.7339 -9.00121 -1.64364 
1 -8.92987 -10.8091 -1.70928 
1 -8.94003 -8.90643 -0.106308 
2 -10.771 -9.00226 1.79167 
2 -8.83705 -10.7273 1.69654 
2 -6.90148 -12.4909 -1.41211 
1 -7.04936 -10.4562 -0.137097 
2 -5.1298 -10.5955 -1.62235 
2 -5.38095 -10.6103 1.57429 
1 -7.12161 -8.8265 -1.72247 
1 -7.21417 -8.89688 1.68708 
1 -5.29649 -8.77567 0.0392733 
1 -3.36128 -12.4109 1.78289 
1 -1.84438 -12.564 0.0950269 
1 -3.40373 -10.6916 -0.0082243 
1 -1.92239 -10.7445 -1.84221 
1 -1.85259 -10.4567 1.85984 
1 -3.56286 -8.85357 -1.70681 
1 -3.55952 -8.88761 1.69698 
1 -1.77119 -8.84175 -0.0767694 
1 -0.0811617 -12.2867 1.95149 
1 -0.140926 -10.661 -0.00948705 
1 3.57379 -12.4558 1.74772 
1 0.0709602 -8.97826 -1.96777 
2 1.84651 -12.3435 -0.0355168 
1 0.0439484 -8.95341 1.69711 
1 3.61257 -12.3076 -1.73125 
1 3.64239 -10.6824 0.010679 
1 1.8502 -10.7595 -1.86807 
1 1.8186 -10.6581 1.78327 
1 3.65113 -9.02516 -1.78067 
1 3.52905 -8.9152 1.71278 
1 1.8005 -9.04843 -0.062613 
1 5.35459 -12.4573 0.0650439 
2 7.10197 -12.5399 -1.72124 
1 7.15598 -12.4328 1.63118 
1 7.0207 -10.7257 -0.121118 
1 5.38642 -10.6843 -1.82669 
1 5.31714 -10.7704 1.85025 
1 7.14053 -8.9721 -1.80672 
2 7.07338 -8.91163 1.64373 
1 5.37624 -8.97594 -0.0973888 
1 8.98863 -12.2423 -0.194996 
1 8.79048 -10.7852 -2.03601 
1 10.6708 -9.04147 -2.1645 
1 10.6493 -8.90209 1.56387 
2 8.96173 -9.10796 -0.242841 
1 8.94475 -10.7739 1.70498 
1 -12.519 -5.38061 0.0592279 
1 -12.3773 -7.19481 -1.78554 
2 -10.719 -7.08583 0.0569841 
1 -10.6483 -5.28105 -1.69453 
1 -10.6811 -5.38642 1.99653 
1 -8.95646 -7.04404 -1.57566 
1 -8.95783 -7.26885 1.81424 
1 -8.87077 -5.27078 0.0573376 
1 -7.15973 -7.21896 0.0214964 
1 -7.10759 -5.47706 -1.69773 
1 -5.26055 -7.05747 -1.62984 
2 -7.1407 -5.4871 1.91493 
1 -5.33883 -7.25009 1.82409 
1 -5.25358 -5.40682 0.149454 
1 -3.52395 -7.19047 0.00334455 
1 -1.80819 -7.16537 -1.83194 
1 -1.77284 -7.28742 1.79731 
1 -3.5097 -5.37417 -1.88374 
1 -3.59133 -5.4697 1.83312 
2 -1.72418 -5.38496 0.151779 
1 -7.49872e-06 -5.53658 -1.88691 
1 0.0403484 -7.17029 0.0370251 
1 0.14412 -5.38823 1.80738 
1 3.58421 -7.16396 -0.168564 
2 1.80516 -7.17373 -1.78609 
1 1.84365 -7.22484 1.77407 
2 3.80305 -5.38071 -1.73868 
1 3.58387 -5.45646 1.75836 
1 1.73439 -5.34478 0.0382276 
1 7.21809 -7.14709 -0.174291 
1 5.47238 -7.24603 -1.86563 
1 7.04949 -5.33994 -1.75823 
1 5.29953 -7.17105 1.7378 
2 7.04676 -5.38921 1.83648 
1 5.42189 -5.34187 -0.00876626 
1 10.5282 -7.22484 -0.104684 
1 10.5811 -5.45036 1.70523 
1 10.5201 -5.20871 -1.79593 
1 8.92698 -7.18952 -1.83107 
1 8.90473 -7.15485 1.60313 
1 8.983 -5.34716 -0.0378235 
1 12.4141 -7.21064 1.64115 
2 12.303 -5.3565 -0.104136 
1 12.2913 -7.12567 -1.90146 
1 -14.2851 -3.48466 0.0190425 
2 -14.1774 -1.70256 -1.73845 
1 -14.2933 -1.67536 1.78409 
1 -12.4992 -3.59452 -1.71686 
1 -12.4819 -3.53807 1.83637 
1 -14.2703 0.0390051 0.12846 
1 -12.4325 -1.83243 0.0887645 
1 -10.8621 -3.66145 0.13264 
1 -10.603 -1.90679 -1.59325 
1 -10.6403 -1.73368 1.7573 
1 -8.87924 -3.60029 -1.64535 
2 -8.94864 -3.68458 1.85735 
1 -8.83092 -1.94358 0.0834628 
1 -7.09237 -3.71493 -0.0529053 
1 -7.03985 -1.76869 -1.63293 
1 -7.10973 -1.85745 1.89771 
1 -5.31469 -3.77405 -1.814 
2 -5.36347 -3.57955 1.87558 
2 -5.3852 -1.82932 -0.0108698 
1 -3.44852 -3.60502 0.114596 
1 -3.4718 -1.85697 -1.69618 
2 -1.71796 -3.67825 -1.87535 
2 -3.50713 -1.8816 1.84575 
1 -1.74188 -3.64983 1.72123 
1 -1.60931 -1.90507 0.166037 
1 0.0268195 -3.76097 -0.0270796 
1 -0.117098 -1.92724 -1.73158 
1 -0.159118 0.00830927 -0.0916937 
1 0.0648928 -1.86104 1.889 
2 3.58114 -3.49299 -0.0204819 
2 1.80024 -3.61363 -1.78899 
1 3.59035 -1.80067 -1.91006 
1 1.73024 -3.5013 1.83615 
1 3.4903 -1.7177 1.75042 
1 1.6402 -1.76818 -0.0639447 
2 3.4923 0.0025123 -0.222968 
1 7.08059 -3.58957 0.0670457 
1 7.04701 -1.70237 -1.84881 
1 7.08652 -1.74012 1.789 
1 5.40904 -3.51684 -1.85589 
1 5.30896 -3.54347 1.77576 
2 5.38442 -1.74946 -0.0584505 
1 10.4859 -3.5161 0.0676724 
1 10.5891 -1.79834 1.72618 
1 10.5468 -1.76003 -1.67442 
1 8.74269 -3.52905 -1.74494 
1 8.89469 -3.65816 1.82672 
2 8.70191 -1.76599 0.00689803 
1 12.1321 -3.4689 -1.64566 
1 12.3918 -1.77609 0.115954 
2 12.3249 -3.62774 1.66049 
2 14.0657 -3.73957 -0.214925 
1 14.3556 -1.56638 -1.41881 
1 14.3778 -1.84043 1.51779 
2 -5.22144 -12.5328 3.50876 
2 -3.33752 -14.0621 3.5167 
1 -0.161411 -14.1836 3.8222 
1 3.33766 -13.9378 3.62651 
1 -10.6922 -10.7916 3.43334 
1 -10.8309 -9.06797 5.19964 
2 -8.80837 -8.98891 3.51898 
2 -8.87771 -10.8332 5.13524 
1 -7.17638 -11.02 3.51547 
1 -5.47609 -11.1099 5.42745 
1 -7.09337 -9.04918 5.41923 
2 -5.45199 -9.08807 3.58953 
2 -3.31958 -12.5246 5.53738 
1 -1.72512 -12.2317 3.64929 
1 -1.77311 -10.5728 5.51265 
1 -3.5057 -10.7021 3.6189 
2 -3.55926 -9.1184 5.39073 
1 -1.70341 -8.92999 3.53274 
1 -0.0442451 -8.78326 5.44409 
2 -0.142167 -12.3847 5.43913 
1 3.57154 -12.4523 5.54568 
1 -0.0168675 -10.5203 3.5597 
1 1.6198 -12.3077 3.71591 
1 1.70818 -10.5865 5.35909 
2 3.59018 -10.8163 3.57399 
1 3.56893 -9.01231 5.45567 
1 1.77249 -8.94782 3.51896 
1 5.43792 -12.6154 3.63199 
1 7.16075 -10.9249 3.52664 
1 5.54043 -10.8656 5.45939 
2 7.10062 -8.71412 5.49343 
2 5.34079 -9.07078 3.56966 
1 8.70089 -10.6385 5.48915 
2 8.95198 -8.86497 3.58712 
2 10.461 -8.66452 5.55115 
1 -12.4926 -5.30655 3.5647 
1 -10.683 -7.20299 3.60138 
1 -10.7177 -5.4807 5.3567 
1 -8.87052 -7.2203 5.27828 
1 -8.90576 -5.52695 3.64087 
1 -7.15928 -7.28493 3.63054 
1 -7.16167 -5.53256 5.38785 
1 -5.35846 -7.38341 5.42582 
2 -5.23905 -5.47508 3.72428 
1 -1.76522 -7.33511 5.39708 
1 -3.57147 -7.30093 3.51386 
1 -3.51562 -5.67544 5.56896 
2 -1.83501 -5.54614 3.4879 
2 -0.0108739 -5.60308 5.36374 
1 0.0928794 -7.1999 3.4791 
1 1.77992 -7.25152 5.22977 
1 3.59054 -7.1941 3.50147 
1 3.48419 -5.42375 5.27759 
1 1.76465 -5.34756 3.48252 
1 7.04971 -7.16207 3.66674 
1 5.15049 -7.28589 5.34888 
2 7.06989 -5.35981 5.28318 
2 5.22166 -5.34392 3.57807 
1 10.5233 -7.11353 3.48274 
1 10.7737 -5.60359 5.41103 
1 8.7711 -6.94203 5.42968 
1 8.93726 -5.42978 3.47616 
2 12.3414 -5.53838 3.45601 
1 -14.0094 -3.30576 3.74741 
1 -12.3932 -3.62635 5.46715 
1 -12.3326 -1.74902 3.55679 
1 -10.7629 -1.68348 5.38529 
1 -10.7362 -3.66338 3.76805 
1 -8.94963 -3.56047 5.50622 
2 -8.9343 -1.85085 3.64977 
1 -12.5123 -0.121321 5.33945 
1 -7.1827 -1.74049 5.58568 
2 -7.25152 -3.57358 3.82556 
1 -5.36974 -3.73213 5.44202 
1 -5.47398 -1.81078 3.80941 
2 -3.63202 -1.7826 5.41212 
2 -1.73553 -3.74771 5.31797 
1 -3.60681 -3.56548 3.68848 
1 -1.75125 -1.74505 3.57647 
1 -0.0567907 0.0143018 3.5918 
1 0.0275092 -3.65461 3.56529 
1 -0.0521646 -1.82511 5.33387 
1 1.71166 -3.57475 5.33972 
1 3.57261 -1.80808 5.32392 
1 3.52883 -3.5516 3.53518 
1 1.74145 -1.82361 3.64658 
1 6.95762 -1.73163 5.29494 
1 7.11966 -3.54066 3.50386 
1 5.24637 -3.43711 5.24664 
1 5.31334 -1.74416 3.49925 
2 10.6755 -1.93166 5.30665 
1 10.5609 -3.65692 3.52189 
2 8.86368 -3.62496 5.30217 
1 8.80747 -1.75212 3.55793 
2 12.4734 -1.79272 3.34175 
1 12.4968 -3.66429 5.24027 
1 14.0805 -3.65584 3.50409 
1 14.1806 -1.82849 5.01904 
1 -9.1287 -9.07869 6.99561 
1 -5.45459 -8.97847 10.7049 
1 -5.50405 -10.6909 8.95805 
1 -7.30514 -10.7647 7.08226 
2 -7.18059 -8.90506 8.85246 
1 -5.30393 -9.10324 7.10704 
1 -1.57252 -12.3277 7.38119 
2 -1.77511 -8.68974 10.7626 
1 -1.77602 -10.6008 9.15518 
1 -3.70438 -10.8754 7.35626 
1 -3.66137 -9.11326 9.10665 
1 -1.89673 -9.05653 7.42561 
1 0.111531 -8.89377 9.07631 
1 0.0924536 -10.408 7.27248 
1 1.66386 -12.1947 7.10035 
1 1.87991 -10.6865 9.02613 
1 3.66399 -10.7469 7.20824 
1 3.6221 -8.94921 9.10852 
1 1.92123 -8.8714 7.14221 
1 1.86606 -8.89572 10.8765 
1 7.20337 -10.722 7.43511 
1 5.27267 -8.83461 10.6598 
1 5.29478 -10.6015 8.90412 
1 7.08289 -8.73741 9.03483 
1 5.42696 -8.94817 7.16086 
1 8.858 -8.84247 7.28103 
2 -10.7101 -7.21559 7.03323 
1 -10.7421 -5.70984 9.10833 
1 -9.08584 -7.37193 8.97782 
1 -8.902 -5.61855 7.14979 
1 -8.92864 -5.43882 10.672 
1 -7.12733 -7.2367 10.7498 
1 -7.22424 -5.61157 8.8565 
1 -5.52638 -7.24687 8.85234 
1 -7.26662 -7.28301 7.08159 
1 -5.41292 -5.53685 7.07204 
1 -5.53427 -5.35565 10.7781 
2 -3.90338 -7.20644 10.7415 
1 -1.86463 -5.51698 10.7019 
1 -1.89244 -7.21797 8.93301 
2 -3.74933 -5.48146 9.0209 
1 -3.52732 -7.35951 7.22599 
1 -1.93191 -5.47289 7.25733 
1 -0.0647498 -7.34724 7.3215 
2 -0.114333 -5.42283 9.05494 
1 0.113422 -7.11131 10.7654 
1 3.61279 -7.14063 10.8016 
1 1.80904 -5.23914 10.7194 
1 1.89065 -7.20811 9.06983 
1 3.54478 -5.4825 9.03466 
1 3.56606 -7.22122 7.24135 
2 1.75328 -5.55479 7.11575 
1 7.16257 -7.08335 10.9234 
1 5.43003 -5.31981 10.7102 
1 5.26405 -7.15056 9.0325 
1 7.04525 -5.38427 9.05383 
1 7.08592 -7.09397 7.36634 
2 5.29962 -5.45339 7.13478 
1 8.73448 -5.17622 10.8067 
1 10.5227 -5.0622 9.11005 
1 10.5562 -6.90645 7.38272 
1 8.94565 -7.08883 9.27512 
1 8.82833 -5.31328 7.40121 
2 -12.1351 -1.90872 7.2508 
1 -9.13265 -1.77099 10.349 
1 -11.0378 -3.26805 9.45614 
2 -10.5936 -3.99066 7.25379 
1 -8.78032 -3.80903 8.89851 
2 -9.25314 -1.828 7.29819 
1 -11.1008 -0.814665 9.34196 
1 -7.21021 -3.62505 10.6168 
1 -5.37143 -1.83157 10.5597 
1 -7.34363 -1.76929 8.7765 
2 -5.56837 -3.58685 8.74711 
1 -7.16051 -3.63121 7.0124 
1 -5.42851 -1.68714 7.22256 
1 -5.31448 0.0585975 8.93181 
1 -3.51445 -0.0893117 10.6436 
1 -3.73786 -3.6259 10.6081 
1 -1.83081 -1.76849 10.6451 
1 -3.61747 -1.86347 8.90597 
2 -1.86425 -3.54181 8.85399 
1 -3.6094 -3.48546 7.04624 
1 -1.69325 -1.73738 7.06749 
2 -3.46147 -0.05556 7.18558 
1 -0.0461341 -3.62642 10.6069 
1 -1.71706 -0.0220619 8.96858 
1 3.47622 -0.0820761 10.6211 
1 -0.0262818 -1.71931 8.88855 
2 0.0234542 -3.58969 7.06314 
1 1.75627 -1.6759 7.02659 
2 3.45331 -3.63789 7.1594 
1 1.76033 -1.76722 10.6057 
1 1.67719 -3.52749 8.9948 
1 3.52432 -1.7072 8.77133 
1 3.53299 -3.55155 10.573 
1 7.16106 -0.129345 10.6563 
1 7.0252 -3.51063 10.6947 
1 5.2506 -1.72056 7.20542 
1 7.00538 -3.50671 7.03101 
1 5.26003 -1.76396 10.6541 
1 5.31156 -3.57993 8.90827 
1 7.03387 -1.78391 8.8662 
1 5.35577 0.0352773 8.93066 
1 8.99384 -1.77099 10.8619 
1 10.733 -3.68289 7.07096 
1 8.92955 -1.83142 7.05336 
1 8.78164 -3.42718 8.94905 
2 10.8665 -2.01404 8.80922 
2 9.06088 -0.0759187 9.06129 
2 12.5991 -1.80342 6.99107 
1 -0.10833 -8.46289 12.7306 
1 -0.0912423 -5.29734 12.2719 
1 -0.0261098 -6.59185 14.2846 
1 -1.89583 -6.92714 12.6689 
1 -3.58932 -5.28717 12.5482 
2 1.78269 -6.76299 12.6033 
1 3.69147 -5.27924 12.423 
1 1.91021 -4.9805 14.2664 
1 -5.53684 -0.167884 12.3915 
1 -5.46855 -3.58706 12.3811 
1 -7.37336 -1.83602 12.111 
1 -0.0268205 -1.90338 12.3997 
2 -0.0736244 -3.72398 14.0164 
1 -1.73366 -0.0507518 12.457 
1 -1.86296 -3.59063 12.336 
1 -1.85462 -1.84252 14.037 
1 -3.68229 -1.79467 12.4006 
1 -3.79829 0.0170624 14.1087 
1 3.37889 -0.00657741 14.1041 
1 1.98912 -2.03504 14.2028 
1 1.72092 -3.5567 12.3709 
1 3.5043 -1.70118 12.3149 
1 1.61746 -0.0803336 12.477 
1 5.3963 -0.0976575 12.5369 
1 7.18993 -1.94326 12.5177 
2 5.18115 -3.38564 12.3684 
1 -7.17019 1.79628 -12.3956 
1 -5.40975 3.69891 -12.4286 
2 -1.98868 1.86269 -14.4854 
2 -3.70717 1.95566 -12.6448 
1 -1.93305 3.73801 -12.7794 
1 -0.241927 3.67718 -14.3778 
2 -0.188138 1.90808 -12.4508 
2 -1.87224 0.0840614 -12.4902 
2 -0.148673 0.168767 -14.4443 
1 3.42875 3.31869 -14.2877 
1 3.49659 1.82103 -12.368 
2 1.66795 3.68368 -12.4926 
1 1.59097 1.86725 -14.448 
2 1.67792 0.157689 -12.4464 
1 5.37945 1.74751 -14.1638 
1 7.13117 1.86277 -12.3545 
1 5.47831 3.67278 -12.4345 
1 -1.67421 7.25364 -12.5085 
1 -3.6233 5.40786 -12.6318 
1 -0.0502436 5.5256 -12.6045 
1 1.64524 7.02547 -12.4543 
1 3.44458 5.26982 -12.5717 
1 -12.3594 1.89414 -7.33633 
1 -11.1239 2.95638 -9.12688 
1 -9.33656 1.88204 -10.5627 
2 -8.90313 3.72589 -8.8436 
2 -9.17443 1.72641 -7.33348 
1 -10.8206 3.82928 -6.96056 
1 -11.1418 0.622685 -9.299 
1 -10.6911 -0.301632 -7.08163 
1 -7.19267 3.69894 -10.7331 
2 -5.39466 1.8048 -10.6893 
2 -7.22707 1.83973 -8.89572 
1 -5.48976 3.72468 -8.93903 
1 -7.13694 3.62861 -7.04289 
2 -5.39582 1.80801 -7.05567 
1 -7.15178 0.0806325 -7.06999 
1 -3.64894 3.63429 -10.7262 
1 -1.97373 1.86409 -10.783 
1 -3.6724 1.80785 -8.90732 
2 -1.84149 3.44046 -8.97489 
2 -3.64911 3.60837 -7.10587 
1 -1.82428 1.80453 -7.10243 
1 -0.172182 3.6594 -7.11961 
1 -0.124179 1.73145 -8.98224 
1 -0.21515 3.68631 -10.7977 
1 -0.0697697 0.016835 -10.6828 
1 -1.90613 0.119113 -8.93773 
1 -3.51431 0.0929618 -7.14977 
1 -0.0781212 -0.0641832 -7.12886 
1 3.59167 3.71353 -10.8512 
1 1.66808 1.9168 -10.6839 
1 3.61281 1.83212 -8.95815 
2 1.71669 3.70567 -8.91391 
1 3.48898 3.6076 -7.0865 
2 1.57774 1.81508 -7.08394 
2 7.08663 3.63428 -10.6131 
1 5.28961 1.97127 -10.674 
1 7.11161 1.83367 -8.89212 
1 5.30694 3.60924 -8.84477 
1 7.1617 3.61975 -7.07192 
1 5.26898 1.97833 -7.18946 
2 5.4002 0.0676063 -8.98224 
1 8.88634 1.8138 -10.75 
2 10.636 1.98367 -8.84785 
1 8.83486 3.66028 -8.82208 
1 8.9614 1.81489 -6.99707 
1 10.7388 3.68809 -7.00945 
2 12.3525 1.94306 -7.13842 
2 10.5851 0.025371 -7.2452 
1 -10.8089 5.42115 -8.88081 
1 -10.7166 7.18229 -7.0435 
1 -8.93721 7.28028 -8.83105 
1 -8.92525 5.3748 -7.00124 
1 -9.02879 5.62282 -10.5702 
2 -5.57701 5.51998 -10.8057 
1 -7.2329 7.26482 -10.667 
1 -7.10938 5.51342 -8.83891 
1 -5.39498 7.2843 -8.88896 
2 -7.13218 7.32549 -7.14027 
1 -5.47817 5.48654 -7.03998 
2 -3.70442 7.27257 -10.7685 
1 -1.90344 5.4733 -10.7767 
1 -1.9078 7.33903 -8.86003 
2 -3.6262 5.47675 -9.03591 
1 -3.6808 7.28088 -7.02331 
1 -1.94448 5.6272 -7.13651 
1 -0.112786 7.2275 -7.07613 
2 -0.19531 5.57826 -8.91706 
1 -0.182349 7.27332 -10.6711 
1 3.50562 7.09993 -10.7163 
1 1.64655 5.44939 -10.7212 
2 1.76729 7.11305 -8.92745 
1 3.5415 5.3966 -8.86741 
1 3.42033 7.19368 -7.08105 
1 1.74331 5.41929 -7.0814 
1 7.0147 7.14251 -10.6291 
1 5.24021 5.42442 -10.5725 
1 7.09668 5.42937 -8.88581 
1 5.3437 7.22941 -8.88272 
1 7.08811 7.21286 -7.05989 
1 5.30193 5.43407 -7.18134 
1 8.78853 5.42328 -10.5784 
1 10.5972 5.27103 -8.89836 
1 8.81935 7.16205 -8.885 
1 8.78689 5.36041 -7.29774 
2 10.6943 6.8621 -7.08329 
1 -8.925 8.99777 -6.95799 
1 -5.37728 8.93753 -10.7227 
1 -5.33591 10.6417 -8.81847 
1 -7.21398 9.08997 -8.9878 
1 -5.46604 9.15953 -6.97025 
1 -7.23032 10.7386 -6.89601 
2 -1.80165 9.10043 -10.6179 
2 -1.81558 10.7063 -8.69481 
1 -3.56167 10.8044 -7.04708 
1 -3.61555 8.98434 -8.81617 
1 -1.73598 9.03138 -7.09048 
1 0.0369668 9.00905 -8.88604 
1 0.0468768 10.7149 -7.10661 
1 -0.0404353 12.475 -8.78805 
1 1.72336 9.00418 -10.783 
1 1.76317 10.6946 -8.99271 
1 3.6694 10.6805 -7.16426 
1 3.55682 8.91036 -8.81033 
1 1.80213 9.00257 -7.07529 
2 1.91803 12.4858 -7.24474 
1 5.27102 8.96762 -10.5099 
1 5.43535 10.7203 -8.78925 
1 7.25447 10.6459 -7.21737 
1 7.11599 8.98858 -8.9109 
1 5.37208 8.84215 -7.15659 
1 8.88884 8.74202 -7.05654 
1 -1.84324 12.7311 -6.97119 
2 -14.2521 3.4402 -3.36268 
1 -14.1097 -0.000518166 -3.58766 
2 -12.461 3.57237 -5.12977 
1 -12.4424 1.82392 -3.35401 
1 -12.4829 -0.0215641 -5.32508 
2 -10.7365 1.87915 -5.31456 
1 -10.6589 3.61548 -3.49472 
1 -8.89816 3.61682 -5.38483 
2 -8.95047 1.85426 -3.39921 
1 -10.7102 0.00900928 -3.40156 
2 -8.88649 0.141794 -5.23379 
1 -7.16758 1.80221 -5.3671 
2 -7.05496 3.67605 -3.55901 
1 -5.37773 3.69062 -5.29072 
1 -5.30367 1.82326 -3.61243 
1 -5.39588 0.145881 -5.32073 
2 -7.03174 0.0499074 -3.35498 
1 -3.46572 1.77674 -5.28733 
1 -1.81543 3.61876 -5.3939 
1 -3.566 3.57074 -3.5889 
1 -1.93605 1.78834 -3.52758 
1 -0.0797762 3.51392 -3.56326 
1 -0.192755 1.60585 -5.3934 
1 -3.64681 0.0350255 -3.54887 
1 -1.86417 -0.135197 -5.34278 
1 3.56483 1.79628 -5.30696 
2 1.66706 3.71909 -5.30402 
1 3.35491 3.56864 -3.53624 
2 1.67797 1.63967 -3.57627 
1 1.80179 -0.011377 -5.36163 
1 3.53485 0.0411182 -3.47378 
1 6.962 1.92258 -5.34872 
1 6.89418 3.66983 -3.4671 
1 5.2212 3.59887 -5.39357 
1 5.30077 1.83153 -3.59028 
1 7.02403 0.0584896 -3.66528 
1 5.18953 0.0590222 -5.44425 
1 8.89515 0.111033 -5.34091 
1 10.6605 1.76689 -5.25804 
1 10.6082 3.61578 -3.58446 
2 8.82365 3.63436 -5.32045 
1 8.80761 1.92984 -3.54168 
1 12.4568 1.65631 -3.52316 
1 10.4952 0.0659155 -3.55312 
1 12.2475 3.61647 -5.23667 
1 13.9468 3.48915 -3.54367 
2 14.2226 -0.466245 -3.49 
1 -12.5327 5.28376 -3.3269 
1 -10.821 7.13026 -3.3771 
1 -10.6886 5.51194 -5.22599 
2 -8.84981 7.25321 -5.19694 
1 -8.95833 5.37402 -3.49841 
1 -6.99262 7.17342 -3.46708 
1 -7.19008 5.44619 -5.31701 
1 -5.31952 7.15431 -5.16331 
1 -5.3144 5.42615 -3.50062 
1 -1.79098 7.27183 -5.30631 
1 -3.50895 7.18113 -3.4797 
1 -3.66769 5.49335 -5.33639 
1 -1.91097 5.47757 -3.712 
1 -0.0824962 5.38134 -5.48684 
2 0.0907396 7.16596 -3.61178 
1 1.64807 7.2146 -5.37876 
2 3.38758 7.13509 -3.57019 
1 3.56054 5.43384 -5.38332 
1 1.73719 5.34794 -3.55792 
1 7.16901 7.14084 -3.60911 
1 6.99708 5.42383 -5.34299 
2 5.22337 7.25589 -5.43616 
1 5.20412 5.39745 -3.64053 
1 10.6807 7.10758 -3.56153 
1 10.5743 5.40971 -5.24835 
1 8.86401 7.03831 -5.40407 
1 8.76398 5.31674 -3.65628 
2 12.2647 5.37542 -3.37377 
1 -10.8622 8.72086 -5.06238 
1 -8.87053 10.444 -5.15565 
1 -8.93079 8.85695 -3.27793 
1 -10.7281 10.4593 -3.36694 
1 -7.23568 10.6973 -3.43019 
1 -5.42284 11.0079 -5.17916 
1 -7.01168 8.98958 -5.13289 
1 -5.40913 8.95239 -3.56585 
1 -1.85766 10.7345 -5.28291 
1 -3.53838 10.7326 -3.45504 
2 -3.72148 8.98216 -5.27077 
1 -1.69998 9.01833 -3.56469 
1 -0.130178 10.8378 -3.54377 
1 0.0358599 9.07363 -5.40819 
1 -0.183853 12.496 -5.45722 
1 -1.75616 12.5323 -3.56474 
2 1.78443 10.851 -5.28155 
1 3.63719 10.9029 -3.62138 
1 3.50914 9.01091 -5.30258 
1 1.78868 9.13867 -3.5346 
1 1.68838 12.5345 -3.45713 
1 3.71499 12.574 -5.53455 
1 7.21336 10.8413 -3.55619 
2 5.4995 10.742 -5.46303 
1 7.2473 8.91942 -5.36116 
2 5.38669 9.03144 -3.5163 
1 10.8561 8.74294 -5.4757 
1 9.15073 10.5747 -5.31578 
1 8.86513 8.90513 -3.64109 
1 -5.62136 12.6321 -3.52213 
1 -3.54894 12.6859 -5.13591 
1 -3.49148 14.3462 -3.47293 
1 -0.205222 14.3776 -3.70662 
2 1.61224 14.0562 -5.40535 
1 3.542 14.1472 -3.75795 
1 5.43532 12.5366 -3.49617 
1 -14.1952 3.55438 -0.124663 
1 -14.2979 1.67368 -1.68241 
1 -14.4305 1.76273 1.88812 
2 -12.393 3.49261 1.85361 
1 -12.4797 1.75728 0.0317516 
1 -12.4555 3.50686 -1.71883 
1 -12.4049 0.0245988 -1.50446 
1 -8.79918 -0.0814597 -1.51497 
2 -10.6667 3.57997 0.116113 
1 -10.6949 1.66451 -1.62035 
1 -10.5249 1.75101 1.87629 
1 -8.99344 3.57766 -1.7231 
1 -8.81693 3.61866 1.89651 
1 -8.79673 1.85071 0.037916 
2 -8.80836 0.0494406 1.7866 
1 -10.644 0.0124966 0.153411 
2 -12.4763 0.0745184 1.93109 
1 -5.13682 -0.0529155 -1.68347 
1 -7.07315 3.55726 0.00903343 
1 -6.97451 1.79859 -1.69899 
1 -7.05918 1.88045 1.80345 
1 -5.19962 3.6456 -1.79803 
1 -5.36552 3.5419 1.85502 
1 -5.37214 1.61064 -0.050923 
1 -7.05989 -0.0294897 0.0191572 
2 -5.37287 -0.00413774 1.94412 
2 -3.68509 3.50208 0.12797 
1 -3.52147 1.78268 -1.68296 
2 -1.79173 3.64115 -1.76531 
1 -3.56257 1.71319 1.78352 
1 -1.9009 3.70957 1.77492 
1 -1.87564 1.67775 0.0822064 
1 -0.167251 1.77172 -1.74279 
1 -3.51156 0.0276398 0.0116471 
1 -1.74041 -0.113109 1.85313 
1 -0.206719 1.73906 1.77476 
1 -1.80348 -0.0659663 -1.84266 
1 -0.115433 3.64872 0.168605 
2 3.4494 3.62663 -0.0495193 
1 3.53657 1.8574 -1.89299 
2 1.58096 3.60583 -1.84352 
1 3.59445 1.78551 1.78078 
1 1.69739 3.71683 1.73072 
2 1.58109 1.75407 0.0491431 
1 1.58978 -0.154072 -1.88647 
2 1.64219 -0.0829158 1.81948 
1 5.28659 0.0250833 1.85941 
1 7.06886 0.126591 0.119746 
1 7.03738 3.58504 0.0392082 
1 7.08828 1.85023 -1.82971 
1 7.00663 1.84284 1.80081 
1 5.21703 3.70596 -1.77358 
1 5.32284 3.6487 1.8375 
2 5.28461 1.82776 -0.00969579 
1 5.49157 0.125909 -1.8913 
1 10.6109 3.54043 0.0701122 
1 10.7548 1.91525 1.7118 
2 10.5378 1.78932 -1.74662 
1 8.74383 3.65429 -1.72906 
1 8.77716 3.42081 1.82996 
1 8.85148 1.88427 -0.0498209 
1 12.4671 1.82922 -0.0584643 
1 10.6559 -0.0572998 0.0838442 
1 8.81972 0.0755144 -1.77503 
2 8.96535 0.146341 1.85842 
1 12.3074 3.57975 -1.69926 
1 12.522 3.80507 1.65256 
1 12.4186 0.0654342 1.56551 
2 12.4238 -0.0879283 -1.65262 
1 14.5221 0.201935 0.166316 
1 14.2287 3.60507 -0.292543 
2 14.2323 1.78239 -1.92187 
1 14.2978 2.02881 1.72195 
1 -12.5773 5.28864 0.0627223 
1 -12.5804 7.18353 -1.53814 
1 -12.3404 6.94339 1.89188 
1 -10.6559 6.87627 0.0704968 
1 -10.657 5.39698 -1.72509 
1 -10.6526 5.38792 1.75455 
1 -8.83872 7.02234 -1.67498 
2 -8.90003 7.16542 1.77559 
1 -8.78755 5.26741 -0.0503734 
1 -7.07224 7.26828 0.00602905 
1 -7.08164 5.38742 -1.78256 
2 -5.29839 7.19783 -1.68607 
1 -7.1031 5.35266 1.82547 
1 -5.33844 7.19671 1.81207 
1 -5.36084 5.35543 0.108968 
1 -3.50952 7.23444 -0.0196044 
1 -1.88911 7.19787 -1.72532 
1 -1.72535 7.21789 1.6998 
1 -3.66999 5.43831 -1.76971 
1 -3.56616 5.46833 1.88573 
2 -1.90588 5.41285 0.0234127 
1 -0.0979758 5.53698 -1.8249 
1 -0.039699 5.39063 1.76606 
1 -0.0495413 7.26143 -0.0444003 
1 3.5053 7.20545 0.0759988 
1 1.92098 7.17059 -1.61318 
2 1.64745 7.29765 1.82016 
1 3.46077 5.31009 -1.78334 
2 3.54497 5.50367 1.82977 
1 1.63386 5.48424 0.0116996 
1 7.13022 7.18098 0.0672819 
1 7.00767 5.34506 -1.76745 
2 5.36832 7.09154 -1.70858 
1 7.05923 5.36404 1.75093 
1 5.49366 7.12073 1.796 
1 5.28627 5.38967 0.0380764 
1 10.4829 6.96536 -0.170066 
1 10.5737 5.26977 1.74695 
1 10.5115 5.31066 -1.7943 
1 8.78851 7.07482 -1.88301 
2 9.04164 7.34706 1.83472 
1 8.77694 5.28617 -0.0233253 
2 12.0549 7.17079 1.74149 
1 12.3139 7.28183 -1.65821 
1 12.3131 5.43177 -0.140373 
2 -8.9479 10.6484 -1.55179 
1 -9.01254 10.7518 1.33027 
2 -10.6983 8.69851 -1.45341 
1 -10.7376 8.95413 1.38205 
1 -8.83583 8.85949 -0.0540983 
1 -7.04708 10.624 -0.0434398 
1 -5.27103 10.7943 1.74467 
1 -5.30227 10.8373 -1.92462 
1 -7.00795 8.97896 -1.73315 
1 -7.10751 9.07665 1.73544 
1 -5.28251 9.09225 0.0205659 
1 -3.67251 10.8028 -0.106345 
2 -1.78805 10.9189 1.75653 
1 -1.82318 10.8514 -1.75535 
1 -3.60141 8.97824 -1.83149 
2 -3.54972 8.98607 1.81404 
1 -1.77237 9.05678 -0.0182164 
1 -0.0605851 10.8175 0.0253867 
1 -1.68216 12.6089 -0.036823 
1 -0.10292 9.04582 1.81284 
1 -3.44437 12.5422 -1.84266 
1 -0.112626 12.7145 -1.82132 
2 0.0632247 9.1017 -1.68863 
1 0.0443022 12.5669 1.7466 
1 3.54481 10.7468 0.246791 
1 1.70683 10.8055 1.72364 
1 1.92725 10.8229 -1.82701 
1 3.54238 8.92276 -1.74736 
1 3.59519 8.96822 1.81645 
1 1.84104 9.01916 0.00691695 
2 1.72903 12.5811 -0.0721011 
1 3.49201 12.5038 1.75433 
1 7.31189 10.6488 0.0192732 
1 5.31072 10.7251 1.83819 
2 5.32527 10.6666 -1.64227 
1 7.19542 8.96694 -1.84473 
1 7.17327 9.05545 1.84019 
2 5.45434 8.95623 0.224895 
2 7.32068 12.1898 1.76693 
1 10.6183 8.94776 -1.87111 
2 11.2495 9.19697 0.47279 
2 9.28103 10.4705 1.6403 
1 9.044 10.725 -1.7623 
1 8.9047 8.91311 -0.153788 
1 -7.18839 12.5099 1.50923 