ITEM: TIMESTEP
10000000
ITEM: NUMBER OF ATOMS
1289
ITEM: BOX BOUNDS pp pp pp
-100 100
-100 100
-100 100
ITEM: ATOMS type x y z 
1 -1.73252 -6.79557 -12.5742 
1 -3.54866 -5.26215 -12.5366 
1 0.229775 -5.41808 -12.4693 
1 1.90044 -7.12159 -12.406 
1 3.55329 -5.28749 -12.5731 
1 -7.12554 -1.81308 -12.2616 
2 -5.28549 -3.52556 -12.345 
1 5.31764 0.00268111 12.6698 
2 -1.54452 -1.85583 -14.1866 
2 -3.46488 -1.85271 -12.5299 
1 -1.58911 -3.6648 -12.3847 
1 -3.46433 -0.127177 -14.5159 
2 -1.7231 0.0497909 -12.3887 
2 5.27807 -3.59769 12.4139 
1 0.228241 -3.77855 -14.2232 
1 0.166996 -1.77887 -12.4727 
2 3.2554 -3.4548 -14.2011 
1 1.78261 -3.55868 -12.323 
1 3.46659 -1.8676 -12.4356 
1 1.57349 -1.75189 -14.4506 
2 1.79946 -0.0116095 -12.3595 
2 3.33501 0.0306552 -14.3871 
1 5.20459 -1.77266 -14.4209 
2 7.03738 -1.84958 -12.5198 
2 5.4056 -3.57857 -12.5774 
1 7.01187 -1.77703 12.5528 
1 -2.03813 -12.5665 -7.27666 
1 0.0663353 -13.7755 -7.32968 
1 2.11111 -12.4687 -7.23934 
1 -8.87212 -8.9636 -6.93629 
2 -5.25141 -10.6177 -8.72546 
1 -5.17863 -8.93156 -10.6128 
1 -7.17907 -9.00186 -8.89026 
1 -5.45251 -8.98183 -6.97087 
1 -7.20639 -10.7027 -7.00576 
1 -1.79123 -8.92685 -10.8186 
1 -1.65692 -10.625 -8.87366 
2 -3.47491 -8.8411 -8.89064 
1 -1.87145 -8.94967 -7.02515 
1 -3.67089 -10.6444 -6.97282 
1 -0.102218 -8.87088 -8.9741 
2 0.0468018 -10.8825 -7.17517 
1 1.79474 -8.9062 -10.6445 
2 1.72133 -10.7117 -8.98963 
1 3.67346 -10.6208 -7.17692 
2 3.66469 -9.01673 -8.92587 
1 1.85952 -9.04683 -7.09366 
1 5.68223 -10.6995 -8.72107 
1 7.25244 -8.86755 -8.86053 
1 5.4979 -8.86639 -7.06165 
1 7.34993 -10.6643 -7.10563 
1 5.41532 -8.92723 -10.6084 
1 9.18769 -8.97297 -7.14849 
1 -10.7855 -5.33548 -9.05383 
1 -8.90739 -7.29096 -8.99825 
2 -8.94698 -5.30863 -7.1953 
2 -10.6116 -7.05218 -7.08597 
1 -8.64909 -5.28921 -10.7755 
1 -7.0573 -7.22212 -10.533 
1 -5.36799 -5.53249 -10.6722 
1 -7.11074 -5.43857 -8.76298 
1 -5.32762 -7.17278 -8.75128 
2 -7.11402 -7.18563 -7.15584 
1 -5.15695 -5.41569 -7.19721 
2 -3.57737 -7.09855 -10.772 
1 -1.67737 -5.39091 -10.7165 
1 -1.77401 -7.11642 -8.96307 
1 -3.61433 -5.45491 -8.90845 
1 -3.62864 -7.20405 -7.11042 
2 -1.81075 -5.30793 -7.11462 
2 -0.0313054 -7.29143 -7.05113 
2 0.112972 -5.45475 -9.02188 
1 -0.0474526 -7.16699 -10.8183 
2 3.75243 -7.05359 -10.6893 
1 1.87106 -5.31797 -10.682 
1 1.86062 -7.21888 -8.8923 
1 3.5268 -5.37957 -8.94602 
1 3.67892 -7.25548 -7.13007 
2 1.85448 -5.35524 -7.16662 
1 7.23819 -7.20168 -10.6628 
1 5.57939 -5.31285 -10.806 
1 5.45495 -7.18943 -8.90951 
1 7.10353 -5.36432 -8.89841 
1 7.18764 -6.98739 -7.15692 
1 5.34144 -5.38913 -7.1131 
1 8.78606 -5.25148 -10.6564 
1 10.5385 -5.16484 -9.09448 
1 10.8641 -6.8939 -7.13838 
2 8.92229 -7.15428 -8.65649 
1 8.93197 -5.21618 -7.10825 
1 -12.4134 -1.87028 -7.19789 
1 -10.6003 -1.80089 -9.00411 
1 -8.78683 -1.89985 -10.7042 
1 -10.9159 -3.70051 -7.15219 
1 -8.97031 -3.60453 -8.99286 
1 -8.96697 -1.97643 -7.2122 
1 -8.91586 -0.0560943 -9.09867 
1 -6.9352 -3.66891 -10.5686 
1 -5.26384 -1.85302 -10.6303 
1 -7.16308 -1.85984 -8.90693 
1 -5.10951 -3.63742 -8.89548 
1 -7.00369 -3.65362 -7.25127 
1 -5.34279 -1.84045 -7.2539 
1 -7.14002 -0.0732726 -10.6458 
1 3.26313 -0.083212 14.3806 
1 -7.24954 -0.0339154 -7.35569 
1 -3.52073 -3.7227 -10.7481 
1 -1.69107 -1.90085 -10.7121 
1 -3.44734 -1.72698 -8.98254 
2 -1.79952 -3.64528 -8.95859 
1 -3.52211 -3.50108 -7.11862 
1 -1.77706 -1.80945 -7.08546 
1 -1.75784 -0.0365012 -8.92423 
1 -0.134357 0.0563992 -7.17157 
1 0.0268719 -3.53886 -7.12682 
2 -0.0822045 -3.54983 14.0084 
1 -0.0348777 -1.77051 -8.94236 
1 0.0246038 -3.62171 -10.5835 
1 3.62811 -3.62705 -10.716 
1 1.68462 -1.83275 -10.6054 
1 1.77165 -3.48597 -8.86153 
2 3.50817 -1.6769 -8.90073 
1 3.63695 -3.63729 -7.10212 
1 1.76503 -1.84408 -7.0719 
1 0.0621652 0.0662168 -10.5915 
2 1.74305 -0.00585003 -8.89349 
1 7.07188 -3.51518 -10.6904 
1 5.21484 -1.82442 -10.6448 
1 7.00211 -1.69433 -8.96927 
1 5.2988 -3.63675 -8.96509 
1 7.02122 -3.55818 -7.24515 
1 5.36465 -1.71876 -7.08142 
2 5.27598 0.133986 -8.80862 
1 8.95108 -1.78195 -10.6514 
1 8.70443 -3.46391 -9.00741 
2 8.81176 -1.82883 -7.16863 
2 10.7312 -1.78947 -8.90646 
1 10.7924 -3.58399 -7.18762 
1 12.4974 -1.84324 -6.98038 
1 -5.35358 -12.5545 -3.35806 
1 -1.87578 -14.0412 -5.35298 
1 -3.45152 -14.1875 -3.47941 
1 -3.75765 -12.6337 -5.41873 
1 -1.8144 -12.4724 -3.45273 
2 -0.15097 -14.373 -3.68192 
1 1.6581 -14.147 -5.51868 
2 1.96455 -12.6529 -3.53424 
1 3.64878 -12.4652 -5.2987 
1 0.0619129 -12.4708 -5.26347 
2 -8.85447 -8.92202 -3.45299 
1 -8.86658 -10.6819 -5.28859 
1 -10.7458 -8.82062 -5.32014 
1 -7.20633 -10.7896 -3.58222 
1 -5.43749 -10.8161 -5.19796 
1 -7.15851 -8.86962 -5.23079 
1 -5.45997 -8.87981 -3.63193 
2 -1.91885 -10.8375 -5.37769 
1 -3.67234 -10.7644 -3.5017 
1 -3.5163 -8.91904 -5.3049 
2 -1.82067 -9.05472 -3.46384 
2 0.0289429 -10.7128 -3.50792 
1 0.00778006 -8.95549 -5.28382 
1 1.78826 -10.8266 -5.30575 
1 3.70533 -10.7111 -3.57563 
1 3.62576 -8.97777 -5.29244 
1 1.9168 -8.99431 -3.69129 
1 5.43979 -12.5795 -3.56419 
2 7.18784 -10.8115 -3.66707 
1 5.45996 -10.8212 -5.49983 
1 7.18071 -8.94623 -5.52707 
2 5.37859 -9.02285 -3.65588 
1 8.92848 -10.658 -5.39686 
2 8.77654 -8.87146 -3.54155 
1 10.6479 -9.00931 -5.24657 
1 8.79857 -10.7172 -1.73691 
1 -12.8297 -5.20819 -3.71639 
1 -10.8201 -7.0572 -3.48947 
1 -11.029 -5.34199 -5.39356 
2 -8.87882 -7.09651 -5.22189 
1 -8.99917 -5.12839 -3.45864 
1 -7.17574 -6.93312 -3.46812 
1 -7.07151 -5.29829 -5.42571 
1 -5.35804 -7.10754 -5.28547 
1 -5.33988 -5.28423 -3.56439 
1 -1.85375 -7.19942 -5.35046 
1 -3.58359 -7.1844 -3.54701 
1 -3.64032 -5.36878 -5.34329 
1 -1.8252 -5.38996 -3.63859 
2 -0.0245833 -5.39112 -5.29562 
1 0.0519628 -7.21063 -3.55789 
2 1.91157 -7.11269 -5.28773 
1 3.56965 -7.07674 -3.54591 
1 3.65517 -5.35453 -5.3246 
1 1.83333 -5.37636 -3.53712 
1 7.06886 -7.11816 -3.6763 
1 5.4126 -7.13695 -5.41844 
1 7.07865 -5.24323 -5.38551 
1 5.46952 -5.35066 -3.61328 
1 10.7702 -7.01996 -3.64501 
1 10.7641 -5.19101 -5.32537 
2 8.92184 -6.98434 -5.40909 
2 8.74281 -5.23714 -3.5394 
1 12.6295 -5.22634 -3.43379 
1 -14.381 -3.19478 -3.63198 
1 -12.7079 -3.3964 -5.49725 
1 -12.5202 0.104443 -5.39534 
2 -12.54 -1.66019 -3.50004 
1 -10.7417 -1.73481 -5.38433 
2 -10.8905 -3.68476 -3.52066 
1 -9.11818 -3.64672 -5.42586 
2 -9.01633 -1.98679 -3.44774 
2 -7.1067 -1.9772 -5.42461 
1 -7.13104 -3.62136 -3.63686 
1 -5.31522 -3.66878 -5.39455 
1 -5.33981 -1.9016 -3.52779 
2 -7.16647 0.0291817 -3.47446 
1 -3.58434 -1.8525 -5.25949 
1 -1.86722 -3.47541 -5.36863 
1 -3.55281 -3.54344 -3.67151 
1 -1.86045 -1.76194 -3.52839 
1 -0.0398978 -1.86125 -5.416 
1 -0.0842437 -3.45387 -3.6437 
1 1.806 -3.59403 -5.30788 
1 3.51606 -1.77861 -5.3764 
1 3.53747 -3.66848 -3.6008 
2 1.67138 -1.74269 -3.69309 
1 3.49222 -1.84719 12.5058 
1 7.11799 -1.77277 -5.38554 
1 7.04886 -3.47425 -3.60804 
1 5.33771 -3.52135 -5.3432 
1 5.3104 -1.77308 -3.59792 
1 1.70337 -3.5046 12.3386 
1 1.6854 -1.99059 14.2895 
1 10.5763 -1.70647 -5.44366 
1 10.5329 -3.45446 -3.61766 
1 8.7721 -3.44321 -5.38057 
1 8.90201 -1.69921 -3.60544 
1 12.1255 -1.75282 -3.3733 
2 12.4616 -3.40467 -5.12555 
2 14.0826 -3.05042 -3.23642 
1 -5.24759 -12.6241 0.0813227 
1 -3.46307 -14.2319 0.272146 
1 -1.87919 -14.4638 -1.71811 
2 -1.74403 -13.982 1.95147 
1 -3.47975 -12.5198 -1.68372 
1 -3.48154 -12.1174 1.803 
1 -1.7228 -12.3386 0.108339 
2 -0.00159289 -14.2815 0.0455142 
1 1.91988 -14.3938 -1.77931 
1 1.78158 -14.1277 1.77306 
1 3.56882 -12.5016 1.78116 
1 3.86074 -12.6639 -1.88093 
1 -10.9283 -8.69803 -1.91765 
1 -10.8692 -10.3076 -0.068828 
1 -9.01267 -10.7631 -1.77705 
1 -9.03776 -8.69367 -0.176979 
2 -9.10924 -10.5597 1.55264 
2 -10.9432 -8.72583 1.92383 
2 -7.26249 -12.3618 1.47906 
2 -7.0523 -12.4767 -1.51512 
1 -7.25631 -10.4588 -0.116212 
2 -5.4051 -10.6618 -1.64393 
2 -5.4561 -10.5448 1.47848 
1 -7.19173 -8.94829 -1.77564 
1 -7.29795 -8.72261 1.73787 
1 -5.33312 -8.70766 -0.112529 
1 -3.38338 -10.5694 -0.0180006 
1 -1.83748 -10.6689 -1.59628 
1 -1.49985 -10.5371 1.7388 
1 -3.70741 -8.852 -1.84696 
1 -3.47601 -8.79863 1.75282 
1 -1.65499 -8.85034 -0.0935341 
1 0.0964591 -8.93893 -1.70807 
1 0.197289 -8.79975 1.72685 
2 -0.014345 -12.4501 -1.80648 
1 0.0392549 -12.3093 1.775 
2 1.99693 -12.514 -0.100305 
1 0.255681 -10.6953 -0.0263564 
1 3.65733 -10.7863 -0.110812 
1 1.94681 -10.6556 -1.87709 
1 1.92731 -10.6535 1.74037 
1 3.72839 -8.80415 -1.86513 
1 3.62543 -8.98308 1.67746 
1 2.07071 -8.95555 -0.00856516 
1 5.54079 -12.58 0.170894 
2 7.05312 -12.4318 -1.67642 
1 7.20303 -12.2429 1.91564 
1 6.95708 -10.5444 0.0927653 
1 5.35735 -10.6708 -1.68624 
1 5.22498 -10.742 1.7199 
1 7.03438 -8.82596 -1.75508 
2 7.06965 -8.85904 1.87471 
1 5.37505 -8.75808 -0.0450212 
1 8.75364 -12.1757 0.235143 
1 10.7407 -9.00408 -1.86889 
1 11.0172 -8.84676 1.5856 
2 8.91602 -8.81623 -0.0183237 
1 9.05598 -10.4971 1.97559 
1 -12.6794 -5.20918 0.134507 
1 -12.8615 -6.69682 -1.81575 
2 -10.8937 -7.06982 -0.0895208 
1 -10.9144 -5.3401 -1.72444 
1 -10.8371 -5.47017 1.84247 
1 -8.93944 -6.93 -1.76955 
1 -9.05985 -7.12013 1.74022 
1 -8.98369 -5.45763 -0.0381743 
1 -7.09196 -7.07668 -0.0854465 
1 -7.15184 -5.32422 -1.86688 
1 -5.41309 -7.0225 -1.98559 
2 -7.30939 -5.4865 1.80066 
1 -5.27695 -7.10186 1.67279 
1 -5.32008 -5.30554 -0.0406707 
1 -3.50128 -7.1644 -0.0833592 
1 -1.75727 -7.13589 -1.80421 
1 -1.75126 -7.12598 1.65184 
1 -3.52813 -5.2875 -1.87465 
1 -3.61595 -5.44405 1.75118 
2 -1.862 -5.31696 -0.000303024 
1 -0.0311328 -5.3721 -1.94761 
1 0.0330994 -5.40583 1.76772 
1 0.0536229 -7.09843 0.0497859 
1 3.63208 -7.06696 0.0190747 
2 1.75179 -7.13243 -1.68473 
1 1.95336 -7.15293 1.80686 
2 3.68244 -5.31518 -1.73464 
1 3.76232 -5.3438 1.78277 
1 1.71624 -5.28761 0.0259494 
1 7.19609 -7.09373 -0.0514507 
1 5.42979 -6.99876 -1.81954 
1 7.11215 -5.23163 -1.80424 
1 5.37482 -7.10479 1.85627 
2 7.14458 -5.29219 1.74771 
1 5.41895 -5.32884 -0.000267709 
1 10.6245 -7.08347 0.0121687 
1 10.5776 -5.27777 1.74793 
1 10.5845 -5.29443 -1.82299 
1 8.87914 -7.10363 -1.86466 
1 8.88813 -7.04617 1.57679 
1 8.85825 -5.29708 -0.074635 
2 12.5179 -5.29366 -0.14047 
1 12.2334 -7.07733 -1.82842 
1 12.5019 -6.92491 1.63349 
1 -14.2142 -3.45963 -0.0563705 
2 -14.3557 -1.43856 -1.65579 
1 -14.0875 -1.72957 1.92511 
1 -12.5772 -3.64909 -1.85374 
1 -12.4896 -3.62803 1.76369 
1 -12.5004 -1.82315 -0.0281682 
1 -10.8121 -3.65366 0.036736 
1 -10.8251 -1.86676 -1.6919 
1 -10.7684 -1.97343 1.76909 
1 -8.91133 -3.64223 -1.72119 
2 -9.10901 -3.66011 1.88385 
1 -9.01861 -1.85112 0.00265022 
1 -7.29136 -3.63716 -0.132175 
1 -7.15788 -1.8621 -1.75553 
1 -7.2544 -1.88268 1.86458 
1 -5.49196 -3.66326 -1.83557 
2 -5.46803 -3.70061 1.85869 
2 -5.39777 -1.94371 -0.0136742 
1 -3.67829 -3.64914 -0.0195157 
1 -3.69664 -1.88886 -1.71309 
2 -1.78605 -3.46082 -1.75008 
2 -3.5406 -1.8592 1.76957 
1 -1.67033 -3.58705 1.82133 
1 -1.80139 -1.85343 0.112329 
1 -0.0588108 -1.6931 -1.87143 
1 -0.0151778 -1.78081 1.77292 
1 -0.107232 0.00213113 -0.0396494 
1 -0.0621782 -3.62839 0.161694 
2 3.58677 -3.43527 0.0106791 
2 1.76811 -3.62807 -1.82552 
1 3.51743 -1.71671 -1.95886 
1 1.81639 -3.60099 1.85018 
1 3.70516 -1.78 1.9042 
1 1.71248 -2.031 0.0124497 
1 7.14877 -3.57497 -0.0237841 
1 7.0776 -1.69385 -1.95854 
1 7.07713 -1.75049 1.86186 
1 5.39713 -3.4352 -1.86436 
1 5.43561 -3.47455 1.76729 
2 5.51694 -1.70668 0.0352997 
1 10.689 -3.62204 0.0462504 
1 10.7456 -1.84058 1.69349 
1 10.5413 -1.6551 -1.68693 
1 8.99879 -3.49647 -1.8216 
1 8.92689 -3.48582 1.80012 
2 8.76718 -1.65169 -0.0989541 
1 12.1834 -3.50426 -1.81837 
1 12.4868 -1.67165 0.0186656 
2 12.6797 -3.63717 1.73941 
2 14.2648 -3.5681 -0.406407 
1 14.5468 -1.34053 -1.2737 
1 14.6732 -1.84313 1.41022 
1 -3.6485 -13.9355 3.34904 
1 -1.87956 -14.1012 5.16519 
1 0.0924379 -14.1512 3.44157 
1 3.51901 -12.3096 5.41411 
1 -10.657 -10.7184 3.37982 
1 -10.7515 -9.19826 5.43244 
2 -8.97387 -8.86204 3.56713 
2 -8.61388 -10.8971 5.18951 
2 -5.41203 -12.2321 3.41862 
1 -7.22908 -10.563 3.34464 
1 -5.60202 -10.579 5.40779 
1 -7.19689 -8.85913 5.32441 
2 -5.33128 -8.85764 3.48656 
2 -3.51373 -12.2159 5.22686 
1 -1.71164 -12.1592 3.50323 
1 -1.69014 -10.471 5.15202 
1 -3.43726 -10.525 3.44553 
2 -3.54537 -8.88048 5.31739 
1 -1.61499 -8.70563 3.532 
2 -0.0805192 -12.3764 5.2305 
1 0.139231 -8.90578 5.37954 
1 0.147855 -10.536 3.55527 
1 1.79743 -12.3391 3.65889 
1 1.87077 -10.5759 5.4402 
2 3.53989 -10.6816 3.61648 
1 3.7127 -8.80432 5.49629 
1 1.9049 -8.93661 3.58012 
1 5.43791 -12.4247 3.61061 
1 7.23131 -10.595 3.67184 
1 5.57058 -10.6898 5.59718 
2 7.21155 -8.75176 5.536 
2 5.30123 -8.9592 3.76167 
1 9.22382 -10.3106 5.36055 
2 9.02821 -8.63149 3.65515 
1 -12.5255 -5.43447 3.63752 
1 -10.8636 -7.22228 3.77393 
1 -10.8531 -5.52508 5.47956 
1 -9.02731 -7.23008 5.41488 
1 -9.11949 -5.4499 3.76746 
1 -7.34082 -6.9975 3.67696 
1 -7.25286 -5.38005 5.47418 
1 -5.50095 -7.17869 5.42922 
2 -5.37559 -5.33247 3.64579 
1 -1.75823 -7.18428 5.42698 
1 -3.62619 -7.10568 3.60888 
1 -3.64386 -5.45674 5.42861 
2 -1.72812 -5.48205 3.54025 
2 0.0245803 -5.35255 5.24546 
1 0.210455 -7.1791 3.51981 
1 1.79919 -7.22427 5.38933 
1 3.56697 -7.15007 3.67097 
1 3.56203 -5.33869 5.44095 
1 1.91263 -5.27726 3.57572 
1 7.24853 -7.05069 3.61272 
1 5.36096 -7.02643 5.58384 
2 7.1559 -5.22002 5.4045 
2 5.36145 -5.31924 3.64112 
2 10.8032 -8.28328 5.34535 
1 10.6741 -6.99674 3.37716 
1 10.8231 -5.33782 5.34218 
1 8.93383 -6.85485 5.4681 
1 8.98233 -5.23483 3.49371 
2 12.458 -5.2588 3.47663 
1 -14.0869 -3.40755 3.608 
1 -14.0972 -1.82043 5.4253 
1 -12.452 -3.47121 5.51006 
1 -12.4026 -1.7151 3.69562 
1 -10.7604 -1.78946 5.40082 
1 -10.8815 -3.64892 3.65007 
1 -9.05558 -3.69946 5.51011 
2 -9.07708 -1.80773 3.80667 
1 -7.04591 -1.81995 5.44191 
2 -7.23768 -3.57454 3.77237 
1 -5.35711 -3.62569 5.49508 
1 -5.47761 -1.84713 3.64835 
1 3.61748 -3.41273 14.162 
2 -3.61403 -1.74916 5.25873 
2 -1.7557 -3.58107 5.32029 
1 -3.57414 -3.75613 3.52389 
1 -1.71164 -1.75335 3.57168 
1 0.0536512 -1.79878 5.37055 
1 0.108678 -3.49534 3.49418 
1 1.87001 -3.48641 5.27504 
1 3.5497 -1.65943 5.29632 
1 3.70298 -3.53981 3.54471 
1 1.84861 -1.77677 3.5126 
1 7.16316 -1.71722 5.31086 
1 7.15651 -3.53386 3.68436 
1 5.2753 -3.46975 5.35251 
1 5.3667 -1.58065 3.63223 
2 10.9015 -1.7263 5.35167 
1 10.7341 -3.52734 3.48757 
2 9.10031 -3.62606 5.431 
1 8.94374 -1.75287 3.68117 
2 12.572 -1.73881 3.36466 
1 12.7996 -3.49007 5.24532 
1 14.5756 -3.1502 3.36631 
1 14.2602 -1.49415 5.19145 
1 -8.95961 -9.22449 6.98033 
1 -7.18635 -10.7526 7.2318 
1 -5.32581 -9.18968 10.7182 
1 -5.11905 -10.7235 8.86021 
2 -7.03963 -8.87096 8.95876 
1 -5.35391 -8.98766 7.19985 
1 -1.82348 -12.3377 7.14989 
2 -1.88597 -8.95405 10.7337 
1 -1.67673 -10.6627 8.94813 
1 -3.50141 -10.7141 7.14066 
1 -3.57424 -8.95993 8.90338 
1 -1.82032 -8.86697 7.23892 
1 0.04934 -8.84512 9.19971 
1 -0.0427682 -10.5836 7.1768 
1 1.61214 -12.2961 6.96584 
1 1.55944 -10.7216 8.9614 
1 3.43141 -10.6723 7.27177 
1 3.52842 -8.90777 9.05125 
1 1.85992 -8.87439 7.25887 
1 1.78874 -8.9253 10.8284 
1 7.45007 -10.4883 7.28639 
1 5.47402 -8.57311 10.5391 
1 5.41676 -10.6044 8.76769 
1 7.21687 -8.70781 8.98031 
1 5.46745 -8.78419 7.26839 
1 9.112 -8.60444 7.13157 
2 -10.6513 -7.36135 7.03805 
1 -10.6474 -5.47263 8.85969 
1 -8.78304 -7.27257 8.92956 
1 -8.96566 -5.47663 7.14686 
1 -9.00567 -5.53828 10.5822 
1 -7.11974 -5.35385 8.84369 
1 -5.41856 -7.23618 8.926 
1 -7.10732 -7.27563 7.17581 
1 -5.40114 -5.53959 7.16784 
1 -7.05064 -7.11957 10.8095 
1 -5.43406 -5.33892 10.7944 
1 -1.79965 -5.44806 10.6984 
1 -1.75011 -7.29421 8.96763 
2 -3.51851 -5.46665 8.90678 
1 -3.62391 -7.24246 7.17809 
1 -1.81636 -5.5685 7.19938 
2 -3.73813 -7.25367 10.8119 
1 0.0295489 -7.19351 10.7519 
1 -0.0369946 -7.24734 7.17158 
2 -0.0102619 -5.42923 8.9979 
1 3.51842 -7.01892 10.8602 
1 1.74165 -5.21081 10.7539 
1 1.8201 -7.12704 9.0547 
1 3.5075 -5.32196 9.12712 
1 3.5486 -7.20922 7.17193 
2 1.6682 -5.40937 7.15053 
1 7.14482 -6.8992 10.7373 
1 5.26022 -5.31825 10.6804 
1 5.29469 -6.99665 8.93483 
1 7.17596 -5.25631 9.01158 
1 7.17453 -6.91134 7.26063 
2 5.27912 -5.16447 7.28274 
1 8.84415 -5.13527 10.7169 
1 10.6083 -4.77717 9.10594 
1 10.8876 -6.61872 7.3499 
1 8.98134 -6.97509 9.05478 
1 8.9586 -5.2742 7.34615 
2 -12.4053 -1.57901 7.12304 
1 -3.43394 0.0560202 14.1613 
1 -10.5625 0.0582779 7.06961 
2 -10.8132 -3.71966 7.2766 
1 -8.84953 -1.90239 10.5846 
1 -10.9018 -2.10227 9.11263 
1 -8.81993 -3.74227 8.89974 
2 -8.8079 -1.86086 7.17364 
1 -11.8967 -0.0287066 9.13847 
1 -7.23376 -0.0906842 10.6152 
1 -0.0574687 -1.76432 12.4191 
1 -7.14596 -3.73794 10.8266 
1 -5.31833 -1.79912 10.5764 
1 -7.12188 -1.99892 8.99007 
2 -5.38225 -3.63101 8.87732 
1 -7.08163 -3.66821 7.11491 
1 -5.34515 -1.79941 7.26852 
1 -3.72131 -3.64329 10.7012 
1 -1.90596 -1.81885 10.709 
1 -3.59281 -1.86215 8.76915 
2 -1.92646 -3.59595 8.99827 
1 -3.55686 -3.6726 7.04583 
1 -1.78099 -1.77456 7.20162 
1 -1.78653 0.0735285 9.01887 
2 -0.00617316 -3.50549 7.20634 
1 -0.113161 -3.51998 10.6009 
1 -0.0639414 -1.61668 9.02603 
1 1.7254 -3.51184 9.07201 
1 3.61335 -1.67517 9.085 
2 3.38292 -3.40637 7.21371 
1 1.69523 -1.80023 10.717 
1 1.78315 -1.65694 7.28608 
1 3.50508 -3.47212 10.7241 
1 3.4869 0.0135004 10.8771 
1 7.17541 -3.41187 7.14205 
1 7.17659 -1.73125 8.98015 
1 5.29417 -1.67279 10.729 
1 7.03985 -3.4672 10.6981 
1 5.37103 -1.76166 7.15447 
1 5.40626 -3.42045 9.03866 
1 7.12276 -0.0766291 10.7556 
2 10.6841 -1.93285 8.88789 
1 8.80926 -3.4058 8.79855 
1 8.90671 -1.71679 7.02228 
1 8.92004 -1.87763 10.767 
1 10.8947 -3.51251 7.01628 
2 9.03078 0.114311 9.06741 
2 12.6547 -1.44467 7.16131 
1 0.0514493 -8.97595 12.4849 
1 -0.0366036 -5.3655 12.3494 
1 -3.47902 -5.4308 12.548 
1 -1.71139 -7.31021 12.535 
2 1.66988 -7.07244 12.528 
1 1.77437 -5.09244 14.2043 
1 3.54435 -5.38548 12.5647 
1 -5.38021 -3.55141 12.5484 
1 -7.05408 -1.70995 12.3497 
1 -3.65896 -1.80094 12.4329 
1 -1.84846 -1.72322 14.3198 
1 -1.94126 -3.58019 12.3973 
1 3.51606 0.0557624 -6.9984 
2 10.5591 0.0512891 -7.16489 
1 8.82784 -0.0809377 -9.08644 
1 -14.2681 0.0103613 -3.69327 
2 -8.90765 -0.141797 -5.38962 
1 -10.6221 -0.0371899 -3.5457 
1 -5.44852 -0.0879516 -5.37916 
1 -3.63678 -0.128545 -3.45504 
1 -0.155844 -0.0350804 -3.63296 
1 1.67217 -0.0186845 -5.3596 
2 12.3634 0.0183303 -5.20777 
2 14.1733 -0.145569 -3.56732 
1 -14.3208 -0.0126269 0.140613 
1 -10.597 -0.0406643 -0.0327206 
1 -9.01883 -0.122409 -1.71993 
2 -8.94441 -0.0940787 1.82917 
1 -12.3795 -0.0528084 -1.75986 
1 -7.12249 -0.115522 0.00660809 
1 8.72297 0.0920742 -1.82155 
1 -10.6773 -0.0294164 3.63294 
1 -5.411 -0.00803643 12.581 
1 -5.4236 0.0320062 5.43456 
1 -1.74436 -0.113784 5.42642 
1 0.135764 0.0353689 3.60669 
1 -3.6189 -0.0301739 3.57698 
2 7.08205 0.205529 3.51805 
1 5.4294 0.0413646 5.37555 
1 -7.1002 -0.0375595 7.18487 
2 -3.57256 -0.0264146 7.17787 
1 3.57362 -0.0908935 7.05812 
2 0.0562558 0.151652 7.16729 
1 1.85118 0.0173183 9.00988 
1 5.42515 -0.229775 8.93275 
1 -10.6941 3.56599 -10.7465 
1 -7.24294 1.62525 -12.3346 
1 -5.43709 3.41255 -12.5891 
2 -1.67154 1.87483 -14.3525 
2 -3.50319 1.794 -12.565 
1 -1.86561 3.60419 -12.4441 
1 0.042188 3.83939 -14.1714 
2 0.0575374 1.95965 -12.4025 
1 3.63269 3.74576 -14.178 
1 3.51902 1.97609 -12.5272 
2 1.86057 3.88136 -12.4601 
1 1.71745 2.10791 -14.4177 
1 5.32098 1.76843 -14.2174 
1 7.10885 1.77785 -12.5015 
1 5.42915 3.79671 -12.5622 
1 -1.72769 7.19823 -12.5686 
1 -3.54755 5.21352 -12.3764 
1 -0.134828 5.48579 -12.5073 
1 1.78782 6.87448 -12.6098 
1 3.62306 5.38708 -12.4401 
1 -9.12136 1.77413 -10.8963 
1 -12.5541 1.70706 -7.25119 
2 -9.06471 3.56038 -9.01718 
2 -8.93736 1.81131 -7.19243 
1 -10.8059 1.66305 -9.07535 
1 -10.8774 3.70115 -7.22636 
1 -10.6148 -0.13509 -7.2515 
1 -7.37078 3.58882 -10.9131 
2 -5.31186 1.68822 -10.6961 
2 -7.15786 1.86643 -8.98745 
1 -5.34954 3.56569 -8.92545 
1 -7.04003 3.58964 -7.11646 
2 -5.32146 1.57288 -7.15465 
1 -3.5599 3.51228 -10.6989 
1 -1.85783 1.81489 -10.6504 
1 -3.53078 1.57386 -8.86404 
2 -1.98433 3.55478 -8.89154 
2 -3.58902 3.55331 -7.00917 
1 -1.93645 1.63257 -7.0506 
1 -0.101878 3.67986 -7.02908 
1 -3.59067 -0.193987 -7.05579 
1 -0.0772386 3.77852 -10.7998 
1 -0.0749846 1.82201 -8.88151 
1 3.64164 3.67818 -10.6459 
1 1.81097 1.92167 -10.6796 
1 3.62865 1.89535 -8.89537 
2 1.79902 3.67903 -8.91853 
1 3.58903 3.81923 -7.21333 
2 1.70703 1.89656 -7.11215 
1 3.48547 0.12566 -10.6814 
1 0.119219 5.4178 12.566 
2 7.0807 3.71451 -10.7829 
1 5.27028 1.86431 -10.8167 
1 7.04585 1.98805 -9.0207 
1 5.23629 3.66432 -8.98284 
1 7.07311 3.82843 -7.16923 
1 5.38783 2.03077 -7.0908 
2 7.10839 0.168573 -7.18613 
2 6.9856 0.0501897 -10.7576 
1 8.95417 1.93056 -10.7735 
2 10.5298 1.83063 -8.86924 
1 8.87654 3.74954 -8.90348 
1 8.7297 1.87618 -7.20735 
1 10.6166 3.56812 -7.10016 
1 10.57 3.72326 -10.7163 
1 1.83753 5.17347 14.2918 
1 12.6074 3.47531 -8.45705 
1 1.82364 7.12846 12.4366 
1 12.5394 1.65756 -7.14578 
1 -10.7047 5.37104 -9.12808 
1 -8.79343 7.22225 -8.88354 
1 -8.84613 5.33195 -7.29843 
1 -10.6181 7.0555 -7.2572 
1 -9.0749 5.49559 -10.7741 
1 -7.11438 7.2549 -10.7078 
2 -5.53584 5.288 -10.9011 
1 -7.10013 5.45369 -9.1316 
1 -5.42774 7.31052 -8.98571 
2 -6.95382 7.10759 -7.1185 
1 -5.33317 5.25135 -7.05178 
2 -3.67324 7.22023 -10.7639 
1 -1.84914 5.43848 -10.69 
1 -1.8261 7.10844 -8.80351 
2 -3.74224 5.42135 -8.96239 
1 -3.63855 7.14253 -7.11822 
1 -1.90624 5.36438 -6.97786 
2 -0.131446 5.35095 -8.81952 
1 -0.189247 7.3233 -6.96484 
1 -0.0129747 7.29578 -10.7387 
1 3.70392 7.28276 -10.7085 
1 1.71536 5.53697 -10.7289 
2 1.64479 7.23693 -8.86239 
1 3.57492 5.60528 -8.83901 
1 3.45498 7.27751 -7.19214 
1 1.71316 5.36215 -7.04121 
1 6.98375 7.04337 -10.6205 
1 5.21649 5.38805 -10.6471 
1 7.07496 5.38738 -8.92882 
1 5.46068 7.38039 -8.83576 
1 7.1928 7.29044 -7.03488 
1 5.33363 5.50301 -7.31598 
1 8.85008 5.48867 -10.6369 
1 8.94809 7.23422 -8.88063 
1 10.8942 5.36206 -8.92174 
1 9.06828 5.45139 -7.12599 
1 10.7172 7.42303 -7.03364 
2 12.3702 5.36641 -6.89926 
1 -8.85509 8.8884 -7.11604 
1 -5.25637 9.21145 -10.6906 
1 -5.1393 10.739 -8.86155 
1 -7.00527 9.01685 -8.91453 
1 -5.24413 8.93055 -7.05396 
1 -7.0884 10.4879 -7.12263 
2 -1.86045 8.93983 -10.6309 
2 -2.14121 10.7702 -8.81609 
1 -3.58255 8.93995 -8.85611 
1 -1.87901 8.87817 -7.10158 
1 -3.73695 10.8722 -6.92042 
1 -0.220252 9.12465 -8.86922 
1 -0.222545 10.7117 -7.16085 
1 -1.6602 12.7761 -7.15695 
1 -0.241178 12.2402 -9.09274 
1 1.55675 9.00107 -10.6278 
1 1.59879 10.7561 -9.02292 
1 3.44051 10.9027 -7.12661 
1 3.45075 9.08205 -8.94531 
1 1.56763 9.11584 -7.20797 
2 1.49299 12.4713 -7.17829 
1 7.29978 8.97339 -8.82414 
1 5.22384 9.31237 -7.24561 
1 8.99595 9.01954 -6.94818 
2 -12.3203 3.65244 -5.33187 
1 -12.4291 1.74906 -3.65715 
1 3.53386 5.30211 12.6002 
2 -10.6976 1.73523 -5.42125 
1 -10.5883 3.51694 -3.53019 
1 -8.89017 3.54526 -5.52525 
2 -8.9905 1.78038 -3.4307 
1 -1.59346 6.99426 12.4808 
1 -3.55919 5.26856 12.514 
1 -7.12012 1.68015 -5.44091 
2 -7.10766 3.5018 -3.53148 
1 -5.34894 3.52446 -5.38428 
1 -5.40209 1.74886 -3.57397 
1 7.06646 1.72651 12.4768 
1 -3.61611 1.78709 -5.22826 
1 -1.75676 3.52593 -5.26828 
1 -3.57128 3.52857 -3.57878 
1 -1.96626 1.67593 -3.53555 
1 5.35407 3.47646 12.423 
1 -0.065158 1.75207 -5.27191 
1 1.57873 1.68975 14.2062 
1 -1.87634 -0.0805241 -5.3264 
1 -0.0733957 3.60283 -3.64086 
1 3.64477 1.87443 -5.35081 
2 1.81041 3.64992 -5.27076 
1 3.51746 3.70806 -3.55842 
2 1.80834 1.65326 -3.54587 
1 3.51681 1.66355 12.5508 
1 6.97977 1.95245 -5.32988 
1 6.97353 3.72902 -3.61516 
1 5.0892 3.8427 -5.40462 
1 5.25324 1.94318 -3.65619 
1 10.5299 1.86347 -5.24582 
1 10.4672 3.66296 -3.55277 
2 8.82174 3.63115 -5.47792 
1 8.7149 1.95836 -3.50551 
1 8.83703 0.16902 -5.39069 
1 10.4804 0.0363461 -3.55714 
1 12.3393 1.80588 -3.58778 
2 12.3297 3.43367 -5.30241 
1 1.93171 3.44528 12.5263 
1 14.2021 3.51178 -3.41182 
1 14.1773 1.65897 -5.22383 
1 0.0815013 -0.200279 14.2516 
1 -12.3286 5.50082 -3.66703 
1 -10.5777 7.20688 -3.43097 
1 -10.5266 5.27243 -5.33406 
2 -8.78526 7.00837 -5.21306 
1 -8.8812 5.26044 -3.44752 
1 -7.08453 7.02553 -3.39105 
1 -7.0512 5.22734 -5.36181 
1 -5.4515 7.02702 -5.09782 
1 -5.35517 5.27259 -3.5202 
1 -1.85349 7.07738 -5.29399 
1 -3.66233 7.14491 -3.60674 
1 -3.62245 5.4284 -5.24511 
1 -1.9003 5.3013 -3.47931 
1 -0.0831608 5.36554 -5.37482 
2 -0.126317 7.1284 -3.64285 
1 1.6287 7.30056 -5.35244 
2 3.43605 7.36855 -3.63595 
1 3.55722 5.59106 -5.42647 
1 1.71963 5.4565 -3.61953 
1 7.02453 7.2207 -3.72011 
1 7.03195 5.44673 -5.44335 
2 5.34873 7.37175 -5.47818 
1 5.20603 5.49639 -3.68715 
1 10.3978 7.14142 -3.4421 
1 10.6495 5.38886 -5.3105 
1 8.89251 7.23944 -5.26468 
1 8.6709 5.40957 -3.55975 
1 12.2592 7.21478 -5.09516 
2 12.4131 5.23154 -3.53489 
1 -10.6937 8.7169 -5.25596 
1 -8.82141 8.77345 -3.48223 
1 -10.6084 10.3209 -3.54316 
1 -9.01649 10.4829 -5.18954 
1 -7.21749 10.6786 -3.62311 
1 -5.4364 10.8078 -5.30937 
1 -7.09474 8.81785 -5.29514 
1 -5.31819 9.03416 -3.60978 
1 -5.4107 12.4343 -3.60684 
1 -2.00899 10.6839 -5.23525 
1 -3.5882 10.829 -3.53232 
2 -3.61011 8.83952 -5.30724 
1 -1.89625 8.97952 -3.4179 
1 -0.339791 9.11634 -5.26617 
1 -0.251644 10.7582 -3.42324 
1 -0.353253 12.5631 -5.31797 
2 1.42336 10.7747 -5.37473 
1 3.24319 10.7991 -3.57356 
1 3.28305 9.14471 -5.60419 
1 1.70934 9.06461 -3.7026 
1 1.40222 12.5329 -3.45593 
1 7.09751 11.0967 -3.50628 
2 5.17324 11.0648 -5.2793 
1 7.11021 9.28612 -5.51823 
2 5.30036 9.19537 -3.67987 
1 10.5854 8.90718 -5.01665 
1 8.72506 9.05489 -3.60117 
1 -1.80477 12.5925 -3.44018 
1 -3.5829 12.6985 -5.36521 
1 -3.53213 14.3363 -3.53036 
1 -0.353949 14.5088 -3.53906 
1 3.27925 12.6742 -5.35479 
2 1.36942 14.1315 -5.25357 
1 3.2507 14.384 -3.68716 
1 5.15452 12.7239 -3.47757 
2 -14.154 1.45616 -1.79675 
1 -14.0877 3.50035 -0.35448 
1 -14.4667 1.84821 1.58897 
2 -12.5072 3.51919 1.80166 
1 -12.4619 3.7013 -2.03566 
2 0.0498723 3.56155 14.2077 
2 -1.74762 3.53533 12.5466 
1 -12.4863 1.7219 0.00743999 
2 -10.7275 3.57885 -0.152661 
1 -10.7861 1.68573 -1.79721 
1 -10.6002 1.74107 1.65688 
1 -8.81531 3.63171 -1.70465 
1 -8.95254 3.55478 1.75926 
1 -8.78484 1.63144 -0.02271 
1 -0.0818566 1.65954 12.5519 
2 -12.4825 0.0247764 1.81722 
1 -3.42191 3.4563 14.3315 
2 -3.70695 1.69255 12.3618 
1 -5.4568 -0.114592 -1.74246 
2 -5.46542 -0.0386318 1.88044 
1 -7.15885 3.4818 0.0355134 
1 -7.07117 1.76988 -1.74967 
1 -7.20511 1.78367 1.82484 
1 -5.28056 3.50298 -1.78032 
1 -5.47391 3.49808 1.79229 
1 -5.4618 1.6292 0.102639 
1 -1.73461 1.54342 14.2925 
2 -3.69156 3.51503 0.0827394 
1 -3.72222 1.67562 -1.7294 
2 -1.77155 3.61956 -1.85389 
1 -3.64888 1.73546 1.86741 
1 -1.78703 3.62709 1.71997 
1 -1.90478 1.82785 0.0863679 
1 -3.69734 -0.0428582 -0.0494747 
1 -1.88594 -0.0356354 -1.78377 
1 -0.147999 1.78039 -1.91268 
1 -0.0589543 3.61524 0.124513 
1 -1.7916 -0.0346248 1.73382 
2 3.54516 -0.17855 -0.097194 
1 -0.0330907 1.73076 1.78292 
2 3.51012 3.67588 -0.0187767 
1 3.5688 1.81648 -1.76283 
2 1.58072 3.67507 -1.91057 
1 3.63601 1.81853 1.79535 
1 1.76824 3.50343 1.7531 
2 1.68981 1.68676 -0.109679 
1 1.66838 -0.0271862 -1.91608 
2 1.83437 -0.056977 1.78258 
1 7.09277 3.77035 0.0638569 
1 6.98464 1.896 -1.968 
1 7.07933 1.97608 1.80474 
1 5.22742 3.67879 -1.81755 
1 5.35358 3.75161 1.75046 
2 5.43338 1.87258 -0.0284272 
1 7.12686 0.155939 -0.0195749 
1 5.36321 0.0859546 -1.81 
1 5.28281 0.0762034 1.81686 
2 12.3252 0.0188786 -1.77551 
1 10.5617 3.57854 -0.0654394 
1 10.7123 2.00963 1.79534 
2 10.5365 1.9172 -1.83052 
1 8.60688 3.77807 -1.87135 
1 8.82203 3.6765 1.77234 
1 8.76397 1.80431 0.022232 
1 10.5463 0.135868 0.0410109 
1 12.2168 0.154879 1.65165 
2 9.02554 -0.0370372 1.89507 
1 12.2971 3.6303 -1.77804 
1 12.3832 1.97397 0.0579394 
1 12.5515 3.83622 1.59551 
1 -1.88682 -0.0132185 12.3793 
2 14.023 1.74078 -1.75302 
1 14.1611 3.78444 -0.24917 
1 14.149 0.375136 0.296999 
1 14.3833 2.31356 1.84305 
1 -12.6651 5.34681 -0.129731 
1 -12.2151 6.93317 1.76277 
1 -12.4752 7.06227 -1.89271 
1 -10.6584 6.91478 -0.11916 
1 -10.7209 5.29355 -1.82969 
1 -10.6446 5.17261 1.68701 
1 -8.81662 7.12269 -1.79916 
2 -9.13027 7.02244 1.83011 
1 -8.89421 5.24584 -0.0170669 
1 -7.20147 7.12482 0.0581922 
1 -7.1793 5.24258 -1.71774 
2 -5.41387 7.24569 -1.7698 
1 -7.19773 5.27169 1.81029 
1 -5.48805 7.17708 1.78297 
1 -5.44002 5.41378 -0.0494143 
1 -3.64909 7.26582 0.036862 
1 -2.06725 7.21637 -1.77652 
1 -1.85032 7.10452 1.90724 
1 -3.65654 5.35913 -1.82763 
1 -3.73135 5.35543 1.92936 
2 -1.89973 5.46476 -0.0376441 
1 -0.103845 5.40836 -1.67986 
1 -0.0937834 5.3061 1.76935 
1 -0.120594 7.18036 0.114195 
1 3.38622 7.29336 -0.140329 
1 1.67501 7.19805 -1.77021 
2 1.74675 7.13084 1.73553 
1 3.42198 5.45307 -1.81054 
2 3.60558 5.45054 1.78117 
1 1.68162 5.46733 -0.029233 
1 7.1471 7.28774 0.0121857 
1 6.99887 5.44284 -1.77258 
2 5.25417 7.24517 -1.72589 
1 7.07471 5.57077 1.69984 
1 5.2867 7.25182 1.69321 
1 5.23189 5.48098 -0.0410149 
1 10.4308 7.19659 -0.380353 
1 10.5462 5.35521 1.50314 
1 10.5225 5.22576 -1.80497 
1 8.61532 7.3887 -1.93453 
2 9.0304 7.57038 1.67261 
1 8.77197 5.61315 -0.123481 
2 11.9014 7.3712 1.4715 
1 12.2505 7.27857 -1.92395 
1 12.4084 5.59841 -0.153267 
2 -8.88396 10.5585 -1.62365 
1 -9.11473 10.8227 1.62241 
2 -10.705 8.84176 -1.57025 
1 -10.7077 8.99805 1.47642 
1 -8.83227 8.84264 -0.0201109 
1 -7.21056 10.7392 0.0336513 
1 -5.37821 10.7447 1.89432 
1 -5.54359 10.7767 -1.81901 
1 -7.16551 8.91292 -1.78713 
1 -7.15443 8.95941 1.69961 
1 -5.48772 9.01588 0.0118087 
1 -7.53282 12.6053 1.77618 
2 -5.65167 12.5444 0.112239 
1 -7.28622 12.5208 -1.83233 
1 -3.71029 10.7291 -0.0178382 
2 -1.89954 10.7506 1.73511 
1 -1.96467 10.7349 -1.67913 
1 -3.73197 9.03664 -1.72896 
2 -3.71705 8.78619 1.93893 
1 -1.81602 8.98929 -0.00663983 
2 -0.160109 8.94282 -1.74005 
1 -0.185925 8.97449 1.80596 
1 -0.0942 10.8521 0.110877 
1 -3.72888 12.3778 -1.69811 
1 -0.115883 12.5575 1.69189 
2 -3.80054 12.7562 1.98316 
1 3.25912 10.796 0.00658689 