ITEM: TIMESTEP
1770000
ITEM: NUMBER OF ATOMS
1289
ITEM: BOX BOUNDS pp pp pp
-100 100
-100 100
-100 100
ITEM: ATOMS type x y z 
1 -1.9909 -6.91944 -12.625 
1 -3.73441 -5.22274 -12.5758 
1 -0.110372 -5.27433 -12.462 
1 1.61941 -6.91804 -12.6614 
1 3.53645 -5.4318 -12.7308 
1 -7.14256 -1.81686 -12.3754 
2 -5.45502 -3.57541 -12.1312 
1 -5.48953 -0.105277 -12.4271 
2 -1.69878 -1.84901 -14.2903 
2 -3.61405 -1.8402 -12.5147 
1 -1.80816 -3.57258 -12.4857 
1 -0.000282516 -1.84824 -12.5047 
1 0.139777 -3.65268 -14.2596 
2 3.32542 -3.47791 -14.2352 
1 1.78666 -3.71299 -12.3936 
1 3.40782 -1.75194 -12.5717 
1 1.60939 -1.80182 -14.339 
2 1.75857 -0.0697155 -12.3604 
1 5.15753 -1.67978 -14.3998 
2 6.95468 -1.74218 -12.5264 
2 5.1718 -3.54124 -12.6633 
1 -9.12629 -8.95726 -6.95604 
2 -5.33156 -10.5648 -8.70782 
1 -5.23884 -9.04223 -10.6978 
1 -7.29751 -9.0452 -8.69032 
1 -5.38341 -8.87171 -6.93003 
1 -7.18192 -10.5683 -6.84717 
1 -1.81839 -12.7077 -7.29274 
1 -2.05531 -10.7106 -9.06006 
1 -1.92586 -8.86752 -10.982 
1 -3.66865 -10.8356 -6.98858 
2 -3.59236 -8.90043 -8.89805 
1 -1.83466 -8.93418 -7.14553 
1 -0.178855 -10.4702 -10.6024 
1 -0.130386 -8.85922 -9.07279 
2 -0.137169 -10.7615 -7.38006 
1 1.82433 -12.5256 -7.37092 
1 1.70611 -8.91101 -10.9017 
2 1.89927 -10.7659 -9.18431 
1 3.67306 -10.6618 -7.24802 
2 3.52314 -8.75853 -8.93849 
1 1.75024 -8.97153 -7.35947 
1 5.1892 -10.5286 -9.18083 
1 7.11519 -8.8104 -9.04026 
1 5.33925 -8.84267 -7.17926 
1 6.9294 -10.6609 -7.23667 
1 5.30309 -8.84607 -10.9218 
1 8.73094 -8.95104 -7.24357 
1 -10.7828 -5.06924 -8.83857 
1 -8.75653 -5.31478 -10.3879 
1 -9.00679 -7.13069 -8.74769 
2 -8.89233 -5.17918 -7.02889 
2 -10.6993 -6.80118 -7.05972 
1 -7.09878 -7.33536 -10.3709 
1 -5.4316 -5.27374 -10.4965 
1 -7.1266 -5.3125 -8.80551 
1 -5.45121 -7.21985 -8.84427 
2 -7.16178 -7.14701 -6.97026 
1 -5.40097 -5.36317 -7.00249 
2 -3.75275 -7.00499 -10.6505 
1 -1.9503 -5.34691 -10.7354 
1 -1.85347 -7.24047 -8.89195 
1 -3.734 -5.37023 -8.80686 
1 -3.74366 -7.15845 -7.21481 
2 -1.97004 -5.46394 -7.0689 
2 -0.100602 -5.4036 -9.04872 
2 0.0983989 -7.20028 -7.07816 
1 -0.142455 -7.27661 -10.867 
2 3.52545 -7.13406 -10.8578 
1 1.74651 -5.46486 -10.7455 
1 1.67351 -7.24289 -9.08545 
1 3.48802 -5.38279 -9.05404 
1 3.49538 -7.18609 -7.10664 
2 1.84439 -5.2742 -7.21903 
1 6.91917 -6.86373 -10.7238 
1 5.26089 -5.28421 -10.6916 
1 5.32472 -7.06208 -8.87854 
1 7.07099 -5.31882 -8.91235 
1 7.09265 -7.01597 -7.18069 
1 5.25081 -5.35322 -7.13341 
1 8.94825 -5.05222 -10.6058 
1 10.5281 -5.06681 -8.86782 
1 10.6542 -6.98452 -7.26206 
2 8.81889 -7.00104 -8.9064 
1 8.82213 -5.31511 -7.19214 
1 -12.6243 -1.64481 -6.93196 
1 -10.8454 -1.91158 -8.69292 
1 -9.1641 -1.69407 -10.4259 
1 -10.9235 -3.57429 -6.99664 
1 -8.9833 -3.44424 -8.83777 
1 -8.9612 -1.98342 -6.94537 
1 -9.05016 -0.0739591 -8.77308 
1 -10.833 -0.0587051 -6.99511 
1 -7.32125 -3.35637 -10.5622 
1 -5.3705 -1.81752 -10.5759 
1 -7.18976 -1.78043 -8.80003 
1 -5.30033 -3.51569 -8.94793 
1 -7.07382 -3.58235 -7.12046 
1 -5.38852 -1.74165 -7.19838 
1 -7.20596 -0.199669 -10.5723 
1 -7.21519 -0.0982175 -7.10186 
1 -3.53674 -3.44459 -10.6442 
1 -1.76791 -1.77398 -10.6843 
1 -3.57147 -1.68517 -8.84098 
2 -1.82404 -3.52232 -8.80903 
1 -3.72472 -3.49435 -7.12217 
1 -1.91645 -1.70734 -7.15768 
1 -0.106389 -3.58538 -10.7162 
1 0.101582 -3.60291 -7.06701 
1 -0.0789829 -0.0244948 -7.00028 
1 -1.7592 0.090306 -8.91118 
1 -3.73599 0.133154 -7.20196 
1 -0.0393387 -1.76341 -8.88884 
1 -0.101167 0.0520438 -10.7486 
1 3.48499 -3.6325 -10.8496 
1 1.5919 -1.90604 -10.8199 
1 1.6351 -3.59118 -8.92134 
2 3.47813 -1.82042 -8.99664 
1 3.5651 -3.56632 -7.14442 
1 1.74582 -1.75063 -7.01696 
1 3.50335 0.10102 -7.16138 
2 1.69367 -0.0133132 -8.97189 
1 7.00105 -3.64109 -10.8189 
1 5.26897 -1.74454 -10.8361 
1 7.13115 -1.80427 -9.02307 
1 5.3003 -3.59973 -8.91985 
1 6.98687 -3.66265 -7.13702 
1 5.39511 -1.82715 -7.08096 
1 8.69859 -2.028 -10.8945 
1 10.7437 -3.64413 -7.05868 
1 8.75082 -3.59586 -8.80242 
2 8.6463 -1.87413 -7.03691 
2 10.4885 -1.84766 -9.04074 
1 12.3228 -1.80177 -7.35141 
1 -5.44239 -12.6308 -3.29592 
1 -1.63111 -14.1457 -5.3853 
1 -3.78412 -12.6111 -5.26218 
2 0.0921989 -14.0603 -3.55436 
2 2.07119 -12.6661 -3.79389 
1 0.242497 -12.6751 -5.69556 
1 3.73871 -12.5004 -5.75112 
1 4.97966 -12.6022 -3.64282 
1 -10.8916 -8.88794 -5.23193 
1 -8.90078 -10.7105 -4.92805 
2 -9.0537 -8.7421 -3.17111 
1 -7.1385 -10.7415 -3.40317 
1 -5.46318 -10.7451 -5.17636 
1 -7.34092 -8.90218 -5.10754 
1 -5.32624 -8.95272 -3.60874 
1 -1.9017 -12.4908 -3.61948 
2 -1.69826 -10.8856 -5.50487 
1 -3.52248 -10.8617 -3.54494 
1 -3.67525 -9.01428 -5.2687 
2 -1.82799 -9.03797 -3.6808 
2 0.179806 -10.8539 -3.69342 
1 0.117133 -9.08659 -5.38038 
1 1.96517 -10.8131 -5.64478 
1 3.52624 -10.6769 -3.70067 
1 3.61325 -8.92492 -5.47265 
1 1.81483 -9.08834 -3.63351 
2 7.03058 -10.6411 -3.70114 
1 5.41804 -10.8492 -5.44851 
1 7.04075 -8.79457 -5.48479 
2 5.21249 -8.88318 -3.59475 
1 8.71126 -10.4566 -5.37427 
2 8.91211 -8.83749 -3.61854 
1 10.7878 -8.75269 -5.59055 
1 -12.6526 -5.34624 -3.50574 
1 -10.9509 -6.9674 -3.63652 
1 -10.9229 -5.19442 -5.37409 
2 -8.98993 -7.11021 -5.19457 
1 -8.97702 -5.3337 -3.49956 
1 -7.18006 -7.19258 -3.39687 
1 -7.13487 -5.33223 -5.09847 
1 -5.38263 -7.24191 -5.30286 
1 -5.46421 -5.44913 -3.34162 
1 -1.84893 -7.31847 -5.32797 
1 -3.54101 -7.14131 -3.51456 
1 -3.71895 -5.37623 -5.28032 
1 -1.78222 -5.38587 -3.62129 
2 0.0168854 -5.26165 -5.25094 
1 -0.136746 -7.19701 -3.58152 
2 1.78652 -7.15151 -5.20125 
1 3.52198 -7.13664 -3.58238 
1 3.53307 -5.43191 -5.34005 
1 1.74456 -5.37184 -3.4773 
1 7.12379 -7.03824 -3.61812 
1 5.26254 -7.1411 -5.33939 
1 7.02344 -5.4262 -5.40114 
1 5.37617 -5.3902 -3.58117 
1 10.9069 -7.24634 -3.54403 
1 10.7988 -5.28967 -5.43569 
2 8.81792 -7.13267 -5.43514 
2 9.05292 -5.34035 -3.58078 
1 12.6011 -5.08733 -3.48107 
1 -14.3198 -3.62334 -3.19324 
1 -12.8813 -3.63199 -5.42027 
2 -12.7291 -1.7193 -3.59689 
1 -10.726 -1.83854 -5.31069 
2 -10.9032 -3.49251 -3.54424 
1 -8.83206 -3.57163 -5.20296 
2 -9.05893 -1.80477 -3.49897 
2 -8.97464 0.00321984 -5.29634 
2 -7.08241 -1.86912 -5.34781 
1 -7.04743 -3.59959 -3.5066 
1 -5.37604 -3.46146 -5.34386 
1 -5.16375 -1.8275 -3.39664 
1 -3.69024 -1.71782 -5.33244 
1 -1.8825 -3.5277 -5.3642 
1 -3.74479 -3.60816 -3.62137 
1 -1.77528 -1.84557 -3.6756 
1 -0.0900659 -1.88748 -5.42194 
1 -0.00890371 -3.59569 -3.48681 
1 -1.9208 -0.0467555 -5.33381 
1 1.76208 -3.48832 -5.37593 
1 3.64176 -1.72019 -5.40482 
1 3.53963 -3.53845 -3.66812 
2 1.71371 -1.64582 -3.63845 
1 6.86391 -1.80753 -5.25162 
1 7.03724 -3.58923 -3.56722 
1 5.31111 -3.66308 -5.31649 
1 5.2686 -1.79492 -3.55614 
1 10.5478 -1.826 -5.30828 
1 10.5399 -3.47319 -3.62168 
1 8.75816 -3.66552 -5.34598 
1 8.7148 -1.78896 -3.66247 
1 12.1501 -1.62681 -3.33473 
2 12.503 -0.125962 -5.39107 
2 12.6228 -3.07543 -5.21384 
2 14.1059 -3.23053 -2.97997 
2 14.0439 -0.0814933 -3.45697 
1 -5.16611 -12.7216 0.0208168 
1 -1.84186 -14.4467 -1.89028 
1 -3.37871 -14.3869 0.219004 
1 -1.39643 -14.4631 1.52592 
1 2.25587 -14.2621 -1.74016 
1 0.173031 -14.6184 -0.515305 
1 3.66085 -14.2477 0.235884 
2 1.44104 -14.0873 1.86316 
1 5.01262 -14.1551 -1.83586 
1 7.0965 -12.3334 1.70473 
1 -10.9638 -10.408 0.0305796 
1 -10.9413 -8.78015 -1.6966 
1 -9.12573 -10.8305 -1.49868 
1 -8.94313 -8.80716 -0.123991 
2 -10.6615 -8.83993 1.79686 
2 -9.02043 -10.7102 1.68514 
2 -7.27135 -12.4628 1.50544 
2 -7.10639 -12.4276 -1.45222 
1 -7.15721 -10.5755 0.00884012 
2 -5.20593 -10.7494 -1.69563 
2 -5.27586 -10.775 1.5484 
1 -7.10981 -8.986 -1.61253 
1 -7.34808 -8.89422 1.76028 
1 -5.1852 -8.94332 -0.0802388 
1 -3.47506 -12.6064 -1.8186 
1 -1.61759 -12.5657 -0.106625 
2 0.0334903 -12.5744 -1.80966 
1 -3.33094 -12.5 1.61925 
1 -3.35386 -10.7412 -0.179227 
1 -1.7869 -10.7061 -1.85672 
1 -1.72127 -10.6467 1.61633 
1 -3.40697 -8.81518 -1.73758 
1 -3.48074 -9.01696 1.82892 
1 -1.66224 -8.93988 -0.125347 
1 0.0839699 -8.94684 1.65174 
1 -0.0614567 -12.442 1.70952 
1 0.00675061 -10.6957 -0.114942 
1 -0.0323649 -8.93642 -1.86824 
2 1.85339 -12.4387 -0.0350606 
1 3.66353 -12.3877 1.89327 
1 3.51763 -12.3187 -1.72761 
1 3.53212 -10.6441 -0.0657713 
1 1.79925 -10.6658 -1.84294 
1 1.73868 -10.8106 1.71554 
1 3.55696 -8.94176 -1.81131 
1 3.4903 -9.02948 1.7154 
1 1.7331 -8.9742 -0.0904543 
2 7.08024 -12.3681 -1.6524 
1 5.29797 -12.5453 0.0487988 
1 6.9422 -10.6517 -0.0657407 
1 5.20603 -10.679 -1.90873 
1 5.30595 -10.7344 1.77471 
1 7.07364 -9.00997 -1.77955 
2 7.15265 -9.09199 1.73466 
1 5.31835 -8.96128 -0.0676784 
1 8.95859 -12.0553 -0.181323 
1 9.14073 -10.8645 -2.10438 
1 10.7578 -8.94973 -1.73418 
1 10.6503 -8.89625 1.63629 
2 8.95044 -9.10633 -0.143961 
1 8.93548 -10.8024 1.86575 
1 -12.5908 -6.91218 -1.57828 
1 -12.5605 -5.24939 0.236704 
2 -10.64 -7.1 0.0582548 
1 -10.7363 -5.25843 -1.65762 
1 -10.6964 -5.42869 1.89134 
1 -8.91546 -6.98766 -1.62805 
1 -8.76321 -7.08271 1.86905 
1 -8.91301 -5.3586 -0.00198138 
1 -7.09175 -7.23288 0.0248471 
1 -7.21415 -5.30619 -1.74555 
1 -5.41333 -7.24851 -1.69958 
2 -7.10679 -5.42998 1.86014 
1 -5.37433 -7.27734 1.70562 
1 -5.45652 -5.43426 0.0067321 
1 -3.56447 -7.1578 0.128831 
1 -1.81741 -7.13677 -1.83282 
1 -1.89403 -7.27926 1.76506 
1 -3.5316 -5.36763 -1.85361 
1 -3.5721 -5.47433 1.71777 
2 -1.71444 -5.54259 0.0267065 
1 -0.0356167 -5.43801 -1.79228 
1 0.0130014 -7.24845 0.0576331 
1 0.0969075 -5.40591 1.85625 
1 3.4991 -7.12873 -0.0477326 
2 1.72763 -7.24045 -1.84233 
1 1.78008 -7.11558 1.69508 
2 3.72399 -5.50673 -1.85855 
1 3.50436 -5.48271 1.81154 
1 1.82146 -5.37986 0.0493431 
1 7.19806 -7.23859 0.0857267 
1 5.42734 -7.06695 -1.727 
1 7.16791 -5.33236 -1.8779 
1 5.29278 -7.31947 1.71917 
2 7.19723 -5.41899 1.72014 
1 5.35673 -5.39963 0.0579639 
1 10.7524 -7.09212 -0.153406 
1 10.5839 -5.35322 1.70909 
1 10.6989 -5.37942 -1.89159 
1 8.70546 -7.10721 -1.86446 
1 8.99846 -7.19114 1.76966 
1 8.86464 -5.40337 -0.153899 
1 12.5905 -6.93826 -1.73618 
2 12.4748 -5.26085 -0.0649083 
1 12.4083 -7.10186 1.7322 
1 -14.238 -3.576 0.162166 
2 -14.099 -1.76983 -1.57457 
1 -14.1811 -1.69764 1.82973 
1 -12.4823 -3.59435 -1.52062 
1 -12.3248 -1.75164 0.232592 
1 -12.4945 0.0588971 -1.50673 
1 -12.278 -3.57707 1.84436 
1 -10.7024 -3.54977 -0.0419889 
1 -10.7866 -1.76824 -1.63124 
1 -10.6507 -1.74296 1.82594 
1 -8.90197 -3.42631 -1.76437 
2 -8.97115 -3.66905 1.79057 
1 -8.79084 -1.80373 -0.0532877 
1 -10.5253 -0.0899616 -0.0128102 
1 -8.92786 0.0854854 -1.67665 
1 -7.13162 -3.56997 -0.0641589 
1 -7.18474 -1.74992 -1.88766 
1 -7.127 -1.89795 1.74837 
1 -5.40935 -3.63751 -1.76463 
2 -5.28086 -3.60777 1.74229 
2 -5.21314 -1.71097 -0.14717 
1 -3.60913 -3.6945 0.0767997 
1 -3.52519 -1.81313 -1.82424 
2 -1.91303 -3.59913 -1.75157 
2 -3.39762 -1.6461 1.87227 
1 -1.82102 -3.63772 1.72782 
1 -1.87105 -1.74577 0.0245288 
1 -0.170401 -1.81054 -1.80745 
1 -0.254013 -1.72894 1.93563 
1 -0.211033 -3.56854 0.034798 
2 3.44698 -3.55244 0.148261 
2 1.73771 -3.5278 -1.77398 
1 3.42258 -1.72033 -1.71101 
1 1.55139 -3.53633 1.8474 
1 3.47765 -1.64589 1.84707 
1 1.46556 -1.81335 0.0020908 
1 7.08211 -3.6551 -0.0514854 
1 7.0868 -1.79371 -1.87257 
1 7.05204 -1.85077 1.86683 
1 5.40381 -3.63927 -1.83691 
1 5.29764 -3.5665 1.82769 
2 5.29183 -1.83595 -0.01091 
1 10.5983 -3.62802 -0.0546624 
1 10.6066 -1.78992 1.79297 
1 10.4716 -1.69558 -1.73583 
1 8.83211 -3.57385 -1.86759 
1 8.84111 -3.60725 1.7643 
2 8.76159 -1.80906 0.125891 
1 12.2591 -3.40023 -1.7655 
2 12.4037 -3.55597 1.65478 
2 12.2735 0.0909869 -1.63947 
1 12.2328 -1.74448 -0.0339402 
2 14.1448 -3.59832 -0.272213 
1 14.2075 -1.41328 -1.47156 
1 14.3189 -1.85412 1.48337 
2 -3.1915 -14.1635 3.32168 
1 -0.388937 -14.2795 3.66498 
2 -3.28864 -12.5504 5.21708 
2 -0.00870669 -12.4579 5.28121 
1 3.36913 -14.1818 3.36789 
1 5.39336 -12.5635 3.62567 
1 -10.6499 -10.717 3.82457 
1 -10.692 -8.88558 5.34579 
2 -8.81265 -8.99858 3.60779 
2 -8.58532 -10.8227 5.24749 
2 -5.22253 -12.6216 3.4123 
1 -7.06608 -10.8785 3.39017 
1 -5.35632 -10.9779 5.26343 
1 -7.03093 -9.0183 5.46318 
2 -5.23189 -9.05701 3.58577 
1 -1.72256 -12.2891 3.3357 
1 -1.76703 -10.7228 5.34436 
1 -3.49046 -10.8076 3.50333 
2 -3.32947 -8.9617 5.39265 
1 -1.61799 -8.96419 3.57269 
1 0.0504206 -8.85096 5.32089 
1 3.5333 -12.6224 5.44445 
1 0.0182737 -10.6495 3.48803 
1 1.76965 -12.4498 3.54276 
1 1.83882 -10.7625 5.38068 
2 3.48364 -10.6576 3.55921 
1 3.48809 -8.95069 5.44788 
1 1.7271 -8.96516 3.51656 
1 7.2432 -11.0314 3.84099 
1 5.37271 -10.844 5.63874 
2 7.09291 -8.83979 5.47661 
2 5.30954 -8.95481 3.59221 
1 9.00935 -10.5434 5.51806 
2 9.07687 -8.94605 3.54541 
2 10.6102 -8.63241 5.53045 
1 -12.5579 -5.26929 3.56789 
1 -10.8366 -7.10688 3.53442 
1 -10.7866 -5.53085 5.44205 
1 -8.9782 -7.25542 5.4658 
1 -8.93178 -5.4605 3.70288 
1 -7.04121 -7.31028 3.76536 
1 -7.12731 -5.40371 5.36752 
1 -5.22318 -7.18078 5.38015 
2 -5.27494 -5.54921 3.61482 
1 -1.78861 -7.06994 5.37431 
1 -3.41316 -7.20447 3.60743 
1 -3.60845 -5.37252 5.35285 
2 -1.74533 -5.36236 3.51499 
1 0.0424793 -7.24824 3.44542 
2 0.190271 -5.38629 5.27718 
1 1.90049 -7.21423 5.42335 
1 3.44325 -7.37181 3.5747 
1 3.43851 -5.30958 5.21472 
1 1.89908 -5.55047 3.53191 
1 7.0984 -7.25558 3.5304 
1 5.12015 -7.13789 5.31695 
2 7.04721 -5.50768 5.35364 
2 5.14405 -5.34088 3.59898 
1 10.6359 -7.0834 3.56335 
1 10.6052 -5.38584 5.3716 
1 8.89049 -7.02602 5.39489 
1 8.91471 -5.36537 3.55685 
2 12.3687 -5.48114 3.51922 
1 -14.0303 -3.36333 3.58687 
1 -12.4067 -3.5038 5.45474 
1 -12.2866 -1.68392 3.56252 
1 -10.7259 -1.78643 5.39295 
1 -10.7427 -3.7084 3.70735 
1 -8.93354 -3.65476 5.43693 
2 -8.89554 -1.71049 3.66788 
1 -7.20555 -1.81072 5.52952 
2 -7.2389 -3.53391 3.72873 
1 -5.42636 -3.67565 5.36924 
1 -5.37852 -1.7757 3.57241 
2 -3.54855 -1.84879 5.34149 
2 -1.77165 -3.61251 5.25231 
1 -3.64963 -3.66429 3.48487 
1 -1.72868 -1.65242 3.61519 
1 -1.79811 0.050921 5.43442 
1 0.0499178 -3.49413 3.57509 
1 3.53493 -0.039463 3.63613 
1 -0.0881572 -1.67504 5.26865 
1 1.83316 -3.39921 5.17804 
1 3.56632 -1.8333 5.28697 
1 3.41712 -3.51706 3.40079 
1 1.73452 -1.6985 3.46872 
1 7.07946 -1.7495 5.34081 
1 7.0664 -3.48406 3.52751 
1 5.22805 -3.50469 5.15288 
1 5.22765 -1.81701 3.51193 
2 7.03228 -0.0245762 3.55922 
2 10.7142 -1.74549 5.234 
1 10.6973 -3.72369 3.52013 
2 8.87273 -3.46212 5.24777 
1 8.87617 -1.73517 3.35344 
2 12.481 -1.77692 3.41455 
1 12.5658 -3.65168 5.21336 
1 14.1575 -3.62386 3.38859 
1 14.3703 -1.79314 5.05685 
1 -8.92148 -9.15215 7.18102 
1 -5.08659 -9.20804 10.6264 
1 -5.20494 -10.686 8.79811 
1 -6.94839 -10.9692 7.06491 
2 -6.96288 -8.97922 8.75478 
1 -5.22636 -8.96265 6.9168 
1 -1.68862 -12.4905 7.19755 
2 -1.52391 -9.04285 10.8274 
1 -1.62551 -10.6981 8.91358 
1 -3.54113 -10.8219 7.04575 
1 -3.46478 -9.03917 8.741 
1 -1.6611 -8.90914 7.19948 
1 0.0839119 -8.93932 8.99444 
1 0.115747 -10.7437 7.16268 
1 1.77707 -12.4873 7.16148 
1 1.96532 -10.6026 8.99147 
1 3.48855 -10.6778 7.10372 
1 3.61243 -8.80361 9.10575 
1 1.77481 -8.87237 7.10067 
1 1.717 -8.90984 10.8986 
1 7.14468 -10.7184 7.1533 
1 5.31062 -8.61402 10.8577 
1 5.37622 -10.3469 8.96343 
1 7.09577 -8.80236 8.96173 
1 5.24799 -8.82074 7.10755 
1 8.98022 -8.81503 7.29866 
2 -10.6505 -7.15486 7.28535 
1 -10.5511 -5.37337 9.1118 
1 -8.78154 -7.24712 8.95338 
1 -8.85066 -5.52873 7.04322 
1 -8.69071 -5.35603 10.6592 
1 -6.99322 -7.32987 10.6153 
1 -7.09808 -5.40832 8.71952 
1 -5.32763 -7.23092 8.76913 
1 -7.10189 -7.27756 7.07733 
1 -5.38392 -5.47099 7.07069 
1 -5.50098 -5.51231 10.721 
2 -3.60528 -7.27787 10.6266 
1 -1.88094 -5.41132 10.7376 
1 -1.72621 -7.25528 8.89165 
2 -3.65347 -5.45786 8.92533 
1 -3.56033 -7.14141 7.09332 
1 -1.63899 -5.38631 7.1706 
1 -0.0800377 -7.09474 10.6812 
1 -0.0272531 -7.08547 7.05791 
2 0.0282162 -5.49628 9.04796 
1 3.52727 -7.08506 10.8491 
1 1.84525 -5.25601 10.7909 
1 1.77343 -7.3327 9.07238 
1 3.45798 -5.35058 9.06936 
1 3.44587 -6.994 7.25201 
2 1.81444 -5.39604 7.18471 
1 6.92578 -7.02392 10.8199 
1 5.37176 -5.15459 10.5525 
1 5.24204 -7.11767 8.92355 
1 7.14775 -5.20511 8.88792 
1 7.07747 -7.12523 7.25222 
2 5.30714 -5.27419 7.14233 
1 8.82579 -4.99799 10.7621 
1 10.5403 -5.10062 9.00509 
1 10.5378 -6.8414 7.33218 
1 8.79034 -6.87845 9.05719 
1 8.90318 -5.29835 7.12639 
2 -11.9443 -1.78089 7.48694 
1 -9.03118 -1.81473 10.6043 
1 -11.163 -2.91853 9.51038 
2 -10.7364 -3.94083 7.21712 
1 -8.84424 -3.6892 8.98081 
2 -9.11515 -1.76508 7.30275 
1 -11.0852 -0.497248 9.52856 
1 -7.15434 -3.50083 10.9615 
1 -5.47769 -1.80685 10.8287 
1 -7.18648 -1.81771 9.07112 
2 -5.57292 -3.50231 8.87915 
1 -7.19578 -3.68038 7.06108 
1 -5.53947 -1.76134 7.09904 
1 -3.76875 -3.60719 10.674 
1 -1.82922 -1.74553 10.6302 
1 -3.66423 -1.77168 9.04967 
2 -1.78032 -3.59056 8.9979 
1 -3.69551 -3.54524 7.15663 
1 -1.82314 -1.902 7.22548 
1 -3.52175 -0.0736387 10.5945 
1 0.0321452 -3.57488 10.6558 
1 3.49949 -0.0589683 10.7401 
2 0.148581 -3.46455 6.99389 
1 0.043103 -1.64768 9.08661 
1 1.82721 -1.59754 7.28303 
2 3.48519 -3.45153 7.07348 
1 1.72861 -1.70706 10.7296 
1 1.70811 -3.5279 8.99537 
1 3.55056 -1.67188 8.93777 
1 3.57701 -3.46679 10.5105 
1 7.08577 -0.000929846 7.1085 
1 5.23122 -1.68283 10.4764 
1 7.16158 -3.47562 6.9962 
1 7.09084 -1.63568 8.79907 
1 5.45381 -3.44208 8.82601 
1 7.08708 -3.38352 10.6418 
1 5.40002 -1.70711 7.18465 
2 9.03987 -0.0208936 8.97915 
1 8.91206 -1.81624 7.0959 
1 8.74696 -3.51791 8.80247 
2 10.6615 -1.9977 8.84565 
1 8.94755 -1.81137 10.6854 
1 10.7749 -3.64688 7.09115 
2 12.5794 -1.72893 6.96143 
1 -0.0384206 -8.73558 12.6433 
1 -1.77216 -7.12944 12.4956 
1 -3.59834 -5.38652 12.4402 
1 -0.222638 -6.4334 14.3774 
1 -0.0482837 -5.26012 12.3361 
2 1.66711 -6.94406 12.6034 
1 1.67869 -5.133 14.3109 
1 3.60564 -5.00205 12.4923 
1 -5.45421 -3.51987 12.6121 
1 -7.24045 -1.754 12.4759 
2 -0.179447 -3.71409 14.0892 
1 -1.85371 -3.54955 12.3218 
1 -1.87876 -1.81701 14.1465 
1 -3.6175 -1.78878 12.3672 
1 0.00389329 -0.122929 14.2075 
1 1.77103 -1.90872 14.1951 
1 1.79476 -3.50071 12.3891 
1 3.48527 -1.79984 12.3615 
1 -0.0490841 -1.82961 12.3831 
1 1.82641 0.00680446 12.5353 
1 3.47556 -0.0747186 14.3115 
1 7.18702 -1.71665 12.2973 
2 5.32297 -3.29706 12.3795 
1 -7.19917 1.62186 -12.6189 
1 -5.64167 3.68231 -12.5894 
2 -1.83713 1.91221 -14.6001 
2 -3.74711 1.7875 -12.7361 
1 -1.93659 3.64326 -12.5583 
1 0.0232246 3.48456 -14.4662 
1 -3.65235 0.0159633 -14.3171 
2 -1.87219 0.0190955 -12.6416 
2 0.114928 0.112985 -14.4051 
2 -0.0719196 1.80053 -12.5294 
1 3.56398 3.80371 -14.1767 
1 3.35066 1.84649 -12.5828 
2 1.80741 3.74167 -12.396 
1 1.76244 1.87654 -14.4793 
2 3.35844 -0.0385028 -14.3645 
1 5.00461 1.81717 -14.296 
1 7.12637 1.90183 -12.5637 
1 5.3168 3.6929 -12.4539 
2 5.28332 0.164711 -12.6113 
1 -1.81309 7.04269 -12.527 
1 -3.72489 5.42679 -12.6524 
1 -0.11136 5.381 -12.6188 
1 1.73411 7.23682 -12.2438 
1 3.72684 5.48075 -12.4787 
1 -12.2945 1.7318 -7.13138 
1 -10.9767 2.8259 -9.1329 
1 -9.06045 1.74269 -10.5027 
2 -8.7247 3.72105 -8.87809 
2 -9.21314 1.83984 -7.18931 
1 -10.6718 4.03722 -7.06465 
1 -11.3312 0.468345 -9.13429 
1 -7.18504 3.38703 -10.8731 
2 -5.37676 1.6847 -10.8477 
2 -7.1509 1.78438 -8.81064 
1 -5.51385 3.6452 -9.01353 
1 -7.04335 3.57981 -6.91778 
2 -5.45163 1.81406 -7.12819 
1 -5.44498 -0.115999 -8.97105 
1 -3.66495 3.53781 -10.8781 
1 -1.95135 1.80668 -10.7777 
1 -3.73561 1.74105 -9.02968 
2 -1.8415 3.48637 -8.89456 
2 -3.59139 3.56142 -7.06077 
1 -1.81452 1.63339 -7.02919 
1 -0.121368 3.62779 -7.03956 
1 -0.114052 1.81452 -8.94849 
1 -0.144419 3.63434 -10.7178 
1 -3.5793 -0.137508 -10.6375 
1 3.67209 3.56027 -10.7565 
1 1.7278 1.89053 -10.7933 
1 3.52176 1.73456 -9.01761 
2 1.79214 3.59393 -9.10238 
1 3.58297 3.58845 -7.13198 
2 1.63274 1.84643 -7.27923 
1 3.561 0.0264573 -10.7311 
2 7.05686 3.49877 -10.6233 
1 5.29405 1.74766 -10.7159 
1 6.99955 1.79422 -8.82772 
1 5.22194 3.58857 -8.92862 
1 6.96871 3.55644 -7.31122 
1 5.29803 1.79465 -7.1181 
2 7.27574 0.109407 -10.7394 
2 5.26273 -0.0689985 -8.95232 
2 7.02143 0.0297326 -7.11653 
1 9.0208 2.00155 -10.8724 
2 10.6468 1.7146 -8.95655 
1 8.80937 3.4537 -8.87658 
1 8.84979 1.70684 -7.14036 
1 10.5485 3.38098 -7.15969 
2 12.3692 1.7106 -7.10125 
2 10.6942 -0.111936 -7.13061 
1 10.205 -0.0809739 -10.8306 
1 8.86087 0.0483344 -8.79852 
1 -10.5846 5.49761 -8.99431 
1 -10.6413 7.1994 -7.10896 
1 -8.93746 7.32322 -9.05635 
1 -8.78988 5.46208 -7.14349 
1 -8.60273 5.52454 -10.7507 
2 -5.50296 5.4659 -10.724 
1 -7.11984 7.44268 -10.7756 
1 -6.98785 5.47595 -8.93146 
1 -5.28458 7.2894 -8.94822 
2 -7.07094 7.2861 -7.2787 
1 -5.44801 5.35724 -7.06591 
2 -3.49769 7.05109 -10.6575 
1 -1.84812 5.28596 -10.7156 
1 -1.78482 7.1281 -8.82757 
2 -3.54047 5.257 -8.7869 
1 -3.65762 7.14192 -7.09117 
1 -1.80381 5.39898 -7.00505 
2 -0.0756498 5.45739 -8.93226 
1 -0.0317306 7.20728 -7.01976 
1 -0.0860733 7.16556 -10.7639 
1 3.63612 7.21801 -10.6727 
1 1.73313 5.53869 -10.6559 
2 1.72235 7.40699 -8.88834 
1 3.54064 5.38817 -8.97165 
1 3.58386 7.16208 -7.23222 
1 1.74905 5.29043 -7.24895 
1 7.18932 7.01032 -10.5348 
1 5.34037 5.45372 -10.5894 
1 7.11495 5.32295 -8.8752 
1 5.44317 7.12285 -8.73961 
1 7.24827 7.01853 -7.09126 
1 5.31625 5.39181 -7.15662 
1 8.92547 5.16302 -10.4948 
1 10.7556 5.18699 -8.66697 
1 9.01154 7.02138 -8.94245 
1 8.90706 5.18231 -7.10677 
2 10.7067 6.88813 -6.95262 
1 -9.08287 9.00222 -7.1515 
1 -4.98148 9.0911 -10.5918 
1 -5.24785 10.8274 -8.861 
1 -7.08282 9.05742 -9.0269 
1 -5.3228 9.02464 -7.16464 
1 -7.15592 10.6082 -7.20068 
2 -1.72986 9.00028 -10.6493 
2 -1.91369 10.6536 -8.73076 
1 -3.6089 10.9275 -6.93636 
1 -3.47786 8.85924 -8.75421 
1 -1.82587 8.9863 -7.01796 
1 -0.081021 9.005 -8.65185 
1 -1.58773 12.5759 -7.04738 
1 -0.00600536 10.7337 -7.0563 
1 0.0127388 12.303 -9.03024 
1 1.25851 9.22976 -10.6849 
1 1.81601 10.7686 -9.00439 
1 3.59224 10.7334 -7.29069 
1 3.65879 9.12998 -9.14005 
1 1.79792 8.9686 -7.02067 
2 1.74082 12.5445 -7.32324 
1 5.4634 8.69518 -10.5722 
1 5.50512 10.7883 -8.73248 
1 7.29138 10.6231 -7.11996 
1 7.15918 8.788 -8.93761 
1 5.29209 8.90398 -7.09763 
1 9.05553 8.78085 -7.19952 
2 -13.974 3.31073 -3.56867 
1 -14.1899 0.314589 -3.36828 
1 -12.2619 1.73326 -3.37193 
1 -12.5814 0.172872 -5.20546 
2 -12.2615 3.77496 -5.34482 
2 -10.6791 1.79721 -5.20125 
1 -10.7742 3.73555 -3.45324 
1 -8.92276 3.70678 -5.35203 
2 -9.01071 1.86656 -3.40428 
1 -10.8326 -0.0608792 -3.36728 
1 -7.24431 1.77124 -5.31334 
2 -7.04663 3.48401 -3.57633 
1 -5.33181 3.62207 -5.25527 
1 -5.26762 1.75283 -3.60009 
2 -7.02268 0.0697345 -3.56997 
1 -5.39201 0.0882671 -5.37812 
1 -3.66539 1.8381 -5.32891 
1 -1.83638 3.54062 -5.3493 
1 -3.61084 3.64711 -3.56729 
1 -1.85207 1.76712 -3.70265 
1 -0.193462 3.62526 -3.57429 
1 -0.183997 1.82685 -5.39961 
1 -0.119641 -0.064247 -3.65915 
1 -3.64209 0.0397997 -3.62601 
1 3.49909 1.68131 -5.39224 
2 1.6494 3.59481 -5.40545 
1 3.51967 3.44446 -3.62648 
2 1.62255 1.76241 -3.63168 
1 1.79982 -0.00481776 -5.41947 
1 3.54241 0.0123778 -3.46861 
1 7.0516 1.8402 -5.41096 
1 7.04101 3.57389 -3.58943 
1 5.26866 3.60592 -5.40348 
1 5.26668 1.75724 -3.59453 
1 5.27543 0.127788 -5.26234 
1 7.06825 -0.0714285 -3.65289 
1 10.6777 1.73453 -5.30869 
1 10.6595 3.42997 -3.59643 
2 8.82155 3.4779 -5.3414 
1 8.83272 1.78316 -3.58472 
1 12.4067 1.70185 -3.70838 
1 10.4655 -0.0916683 -3.61028 
1 8.77429 0.0356445 -5.4148 
1 12.3851 3.48932 -5.40033 
1 14.1299 3.43954 -3.51837 
1 -12.4535 5.40266 -3.35257 
1 -10.5813 7.20375 -3.4743 
1 -10.5792 5.55131 -5.253 
2 -8.73467 7.2269 -5.26927 
1 -8.80227 5.36897 -3.54267 
1 -7.09312 7.21324 -3.5201 
1 -7.07994 5.41487 -5.24971 
1 -5.45307 7.289 -5.2545 
1 -5.344 5.46878 -3.5397 
1 -1.85857 7.16878 -5.27201 
1 -3.53412 7.34432 -3.48717 
1 -3.68952 5.44293 -5.32287 
1 -1.98385 5.42727 -3.65504 
1 -0.0842129 5.42674 -5.32891 
2 -0.00663581 7.23984 -3.56946 
1 1.746 7.13498 -5.40106 
2 3.39583 7.23826 -3.52897 
1 3.51088 5.38405 -5.27143 
1 1.6031 5.41122 -3.53794 
1 7.02518 7.07192 -3.66269 
1 6.99946 5.34344 -5.26341 
2 5.27718 7.13869 -5.47119 
1 5.1558 5.37891 -3.50105 
1 10.6301 7.13773 -3.58202 
1 10.7784 5.2511 -5.31112 
1 8.82422 7.01157 -5.36181 
1 8.8978 5.3178 -3.62237 
2 12.4327 5.29163 -3.39486 
1 -10.7616 8.86021 -5.29377 
1 -8.84559 10.6433 -5.34803 
1 -8.76909 8.93869 -3.42885 
1 -10.6206 10.4943 -3.46108 
1 -7.12144 10.7747 -3.5768 
1 -5.32948 10.8198 -5.28958 
1 -7.03529 9.04747 -5.31484 
1 -5.35355 9.13528 -3.56129 
1 -5.34762 12.5972 -3.5366 
1 -1.75559 10.7809 -5.33724 
1 -3.5268 10.8351 -3.64195 
2 -3.60696 8.97714 -5.35915 
1 -1.75954 9.0353 -3.55691 
1 -1.62511 12.5151 -3.61207 
1 -3.3769 12.6889 -5.29648 
1 -0.011398 10.787 -3.54822 
1 -0.0857632 9.08049 -5.26183 
2 1.8924 10.8258 -5.31826 
1 3.60624 10.8238 -3.56525 
1 3.57025 8.93285 -5.41994 
1 1.78599 9.0316 -3.5987 
1 1.76549 12.4547 -3.51778 
1 3.61619 12.5338 -5.44393 
1 7.02215 10.8526 -3.67128 
2 5.27914 10.6652 -5.50414 
1 7.20198 8.93854 -5.43378 
2 5.35259 8.90078 -3.61425 
1 5.49254 12.8202 -3.63423 
1 10.5777 8.94571 -5.28164 
1 8.90975 10.584 -5.31757 
1 8.73392 8.82545 -3.5182 
1 0.00152919 12.3931 -5.30466 
1 -3.42506 14.2301 -3.3841 
1 0.122153 14.2514 -3.65945 
2 1.73806 14.0503 -5.35876 
1 3.33341 14.2856 -3.63183 
1 -14.1433 3.65151 0.135067 
1 -14.2357 1.77065 -1.51291 
1 -14.3052 1.75841 1.85805 
2 -12.3699 3.52441 1.92911 
1 -12.4404 1.83548 0.116555 
2 -12.3041 0.108834 1.72525 
1 -14.355 0.0349787 0.141614 
1 -12.4637 3.65318 -1.631 
2 -10.523 3.64645 0.0408725 
1 -10.6517 1.89725 -1.60546 
1 -10.4882 1.89786 1.80923 
1 -8.81313 3.79123 -1.78565 
1 -8.80576 3.72405 1.85514 
1 -8.81661 1.79482 0.0141599 
2 -8.73693 -0.0280834 1.81367 
1 -7.02901 3.68167 0.0367487 
1 -7.0826 1.91592 -1.67091 
1 -7.19219 1.93734 1.62748 
1 -5.31013 3.6229 -1.78251 
1 -5.39649 3.59871 1.79228 
1 -5.26352 1.81555 0.0440654 
1 -5.32676 0.138779 -1.6732 
1 -7.06537 0.00162178 -0.0862928 
2 -5.49664 0.0403468 1.81108 
1 -3.5458 0.125665 -0.109718 
2 -3.64155 3.51838 0.0284778 
1 -3.59953 1.81434 -1.90569 
2 -1.76945 3.55364 -1.71477 
1 -3.59584 1.80298 1.78728 
1 -1.87503 3.55441 1.87417 
1 -1.72906 1.83191 0.020745 
1 -0.12937 1.68112 -1.83567 
1 -0.155059 1.77434 1.90818 
1 -1.87488 0.189135 1.69391 
1 -1.86594 0.0148058 -1.96941 
1 -0.117452 3.64805 0.162586 
1 -0.255788 -0.110507 -0.112818 
2 3.40641 0.0468611 0.0553298 
2 3.56453 3.60099 0.0198161 
1 3.35925 1.72176 -1.82142 
2 1.62631 3.75443 -1.85229 
1 3.47518 1.85389 1.8455 
1 1.71391 3.63234 1.81612 
2 1.44901 1.81706 -0.0798559 
2 1.56745 -0.00244895 1.77458 
1 1.68054 -0.136247 -1.8657 
1 5.35714 -0.0141409 -1.92768 
1 7.01909 3.57872 -0.070675 
1 7.0983 1.76451 -1.89057 
1 6.99878 1.8368 1.84472 
1 5.28913 3.63499 -1.89321 
1 5.31894 3.47775 1.83252 
2 5.37164 1.77095 -0.0227419 
1 6.98077 0.0294532 -0.00773599 
1 5.2371 0.0449124 1.80795 
1 8.73619 -0.0587237 -1.68165 
1 10.5797 3.61021 -0.0452566 
1 10.6853 1.94746 1.70688 
2 10.3978 1.8153 -1.83472 
1 8.66293 3.56955 -1.82479 
1 8.78484 3.46346 1.76341 
1 8.66375 1.88627 -0.0206028 
2 8.78523 0.210591 1.69795 
1 10.5148 0.0552947 -0.0432301 
1 12.313 3.41653 -1.85548 
1 12.3821 1.88581 0.0660683 
1 12.5281 3.70134 1.66097 
1 14.06 3.71941 -0.40461 
2 14.1322 1.70543 -1.64378 
1 14.2878 0.199327 0.281691 
1 14.4343 2.17128 1.51755 
1 12.2972 0.039404 1.54343 
1 -12.4133 5.44592 0.118775 
1 -12.4022 7.26088 1.83157 
1 -12.3908 7.21464 -1.62051 
1 -10.566 7.09689 -0.00921802 
1 -10.7294 5.4624 -1.72772 
1 -10.7176 5.4631 1.76996 
1 -8.88647 7.04644 -1.76738 
2 -8.88634 7.22842 1.76758 
1 -8.82992 5.41463 0.0334705 
1 -7.0301 7.13917 0.0208176 
1 -7.14329 5.41324 -1.78216 
2 -5.37622 7.22528 -1.70767 
1 -7.02835 5.40757 1.81549 
1 -5.31968 7.21831 1.7157 
1 -5.30908 5.502 -0.0193397 
1 -3.54951 7.31205 -0.0907887 
1 -1.82547 7.18043 -1.79165 
1 -1.75965 7.35 1.82894 
1 -3.5992 5.39712 -1.89812 
1 -3.75379 5.41847 1.78682 
2 -1.96873 5.4972 0.0988528 
1 -0.0353262 5.39994 -1.76847 
1 -0.11242 5.43087 1.80886 
1 -0.153354 7.21964 -0.135388 
1 3.54359 7.14676 0.111817 
1 1.77273 7.25627 -1.67691 
2 1.65953 7.15881 1.68901 
1 3.48245 5.35633 -1.80798 
2 3.49924 5.3478 1.90588 
1 1.70215 5.38319 -0.0627218 
1 7.0392 6.99655 -0.0584183 
1 7.05955 5.34391 -1.90307 
2 5.15311 7.22636 -1.69469 
1 6.94615 5.35106 1.71543 
1 5.28315 7.13998 1.84297 
1 5.34217 5.38443 0.0261441 
1 10.5256 7.07326 -0.0530214 
1 10.6347 5.31752 1.69729 
1 10.5937 5.33809 -1.78666 
1 8.81097 7.09 -1.73806 
2 8.86691 7.17327 1.76096 
1 8.81195 5.33895 0.0081529 
2 12.0655 7.36955 1.82987 
1 12.3653 6.99569 -1.60362 
1 12.4122 5.44835 0.139577 
2 -8.83543 10.7319 -1.50455 
1 -8.83329 10.7285 1.60506 
2 -10.5819 8.94886 -1.48222 
1 -10.7228 9.13842 1.48422 
1 -8.72004 8.82514 -0.0502677 
1 -7.03159 10.7524 0.0517917 
1 -5.28432 10.7634 1.97669 
1 -5.29616 10.8223 -1.73954 
1 -7.05408 9.0438 -1.74037 
1 -6.99875 9.03466 1.66707 
1 -5.29982 9.04583 0.0925781 
2 -5.21791 12.5881 0.228838 
1 -7.19896 12.5714 1.72811 
1 -7.12077 12.4817 -1.63961 
1 -3.47196 10.9199 0.168587 
2 -1.72964 10.9097 1.99023 
1 -1.84854 10.8579 -1.64967 
1 -3.50535 9.10268 -1.74282 
2 -3.53699 8.92334 1.86432 
1 -1.89519 9.12445 0.0653941 
1 -3.52387 12.5458 -1.66966 
1 0.0596101 12.5655 -1.87972 
1 0.00542048 10.8634 0.109595 
2 -0.0472467 9.0685 -1.75727 
1 -1.67528 12.6083 0.208298 
1 -0.0642381 9.16753 1.81497 
1 0.110133 12.4884 1.89531 
1 3.57432 10.7324 -0.0526533 
1 1.89094 10.7515 1.88796 
1 1.81634 10.8101 -1.66537 
1 3.41541 9.05486 -1.63526 
1 3.64352 8.86645 1.7709 
1 1.64966 9.09878 0.144368 
2 1.75632 12.648 0.0387873 
1 3.75399 12.6408 1.77492 
2 3.64058 12.6806 -1.84731 
1 7.04239 10.6449 0.0698402 
1 5.38725 10.6944 1.80717 
2 5.30406 10.7629 -1.88781 
1 7.14027 8.94549 -1.81414 
1 6.98867 8.86797 1.83495 
2 5.33752 8.97487 0.105125 
2 7.28123 12.269 1.80554 
1 7.16102 12.5268 -1.74596 
1 5.41898 12.5826 0.131766 
1 10.6785 8.91086 -1.73418 
2 10.9677 9.33052 0.70323 
2 9.00605 10.4737 1.96437 
1 8.78342 10.7497 -1.76992 
1 8.67074 8.88667 -0.0365303 
2 -5.26354 14.1435 -1.6879 