ITEM: TIMESTEP
1390000
ITEM: NUMBER OF ATOMS
1289
ITEM: BOX BOUNDS pp pp pp
-100 100
-100 100
-100 100
ITEM: ATOMS type x y z 
1 -1.87666 -6.89554 -12.4362 
1 -3.50056 -5.07164 -12.779 
1 -0.150147 -5.10126 -12.3975 
1 1.72292 -6.82448 -12.4621 
1 3.39069 -5.20166 -12.5017 
1 -7.24516 -1.72921 -12.3002 
2 -5.66246 -3.69519 -12.3553 
2 -1.86396 -1.78016 -14.1661 
2 -3.84178 -1.81837 -12.5943 
1 -1.86159 -3.37216 -12.3056 
1 -0.00736004 -1.71721 -12.4078 
1 -0.142761 -3.61309 -14.0437 
1 -3.69146 0.137502 10.7187 
2 3.49505 -3.26094 -14.1718 
1 1.67111 -3.53497 -12.4392 
1 3.53245 -1.67363 -12.3611 
1 1.64142 -1.79417 -14.1758 
2 3.60087 -0.0585087 -14.363 
1 5.54486 -1.78776 -14.3209 
2 7.18766 -1.81559 -12.5023 
2 5.37393 -3.43358 -12.5122 
1 -1.77484 0.036101 9.03816 
1 -1.93802 -12.5339 -6.96435 
1 1.51467 -12.5564 -7.28666 
1 -8.90419 -8.9845 -7.27363 
2 -5.26512 -10.5076 -8.72637 
1 -5.14175 -8.90112 -10.6548 
1 -7.18326 -8.81594 -9.05037 
1 -5.38076 -8.8481 -7.16086 
1 -7.09234 -10.6047 -7.04403 
1 -1.97038 -10.7893 -9.17757 
1 -1.91274 -8.70756 -10.9399 
1 -3.42823 -10.701 -7.21946 
2 -3.46794 -8.84177 -8.96554 
1 -1.90991 -8.93585 -7.11244 
1 -0.184772 -10.487 -10.8616 
2 -0.27919 -10.7316 -7.20332 
1 -0.284655 -8.89706 -9.03142 
1 1.66355 -8.92367 -10.867 
2 1.47282 -10.677 -9.08005 
1 3.33925 -10.6964 -7.261 
2 3.45395 -8.87439 -8.96638 
1 1.64087 -9.01861 -7.2812 
1 5.1949 -10.6512 -8.94737 
1 7.05441 -8.87484 -9.09649 
1 5.18982 -8.86036 -7.23833 
1 6.98166 -10.6383 -7.16434 
1 5.11847 -8.88692 -10.7325 
1 8.90853 -8.98108 -7.47555 
1 -10.6965 -5.06937 -8.88787 
1 -8.41804 -5.36744 -11.0009 
1 -8.97505 -7.02847 -9.1638 
2 -8.98463 -5.33861 -7.12946 
2 -10.5757 -7.12972 -7.14723 
1 -6.84314 -7.17617 -10.8013 
1 -5.42405 -5.35151 -10.7452 
1 -7.01787 -5.3601 -8.96412 
1 -5.31417 -7.05001 -8.80871 
2 -7.17355 -7.17468 -7.11102 
1 -5.35684 -5.31597 -6.96767 
2 -3.76676 -6.89188 -10.8515 
1 -2.0738 -5.10179 -10.7723 
1 -1.90975 -6.95748 -9.01136 
1 -3.8165 -5.13987 -8.90733 
1 -3.54679 -7.11403 -6.99772 
2 -1.94351 -5.25424 -7.03468 
1 -0.092354 -7.09691 -10.8109 
2 -0.135779 -5.21793 -9.00458 
2 -0.174701 -7.23422 -7.18985 
2 3.47437 -6.93651 -10.7609 
1 1.72581 -5.17292 -10.6886 
1 1.62868 -7.15018 -9.0333 
1 3.59165 -5.25379 -8.95113 
1 3.63152 -6.97655 -7.2959 
2 1.73106 -5.29105 -7.27927 
1 7.13445 -6.95906 -10.7189 
1 5.38171 -5.25369 -10.8427 
1 5.26389 -7.04416 -9.01107 
1 7.04102 -5.23867 -8.92275 
1 7.06634 -7.1382 -7.26118 
1 5.3921 -5.32471 -7.13395 
1 8.80099 -5.13926 -10.6782 
1 10.6733 -5.34403 -8.73607 
1 10.9449 -7.06297 -7.17259 
2 8.79432 -6.91578 -8.91043 
1 8.79122 -5.30158 -7.15892 
1 -12.5632 -1.84068 -6.88329 
1 -10.6514 -1.88956 -8.71002 
1 -9.11518 -1.89087 -10.6513 
1 -10.7399 -3.58434 -7.00489 
1 -8.78165 -3.59963 -8.89526 
1 -8.9108 -1.77666 -7.02913 
1 -10.8639 -0.0260361 -7.08247 
1 -8.96732 -0.155715 -8.74362 
1 -7.13193 -3.48864 -10.4945 
1 -5.45495 -1.77814 -10.6656 
1 -7.20217 -1.73463 -8.76907 
1 -5.41275 -3.46106 -8.82521 
1 -7.10271 -3.67688 -6.96126 
1 -5.39598 -1.70844 -6.89315 
1 -7.28477 -0.156438 -10.6259 
1 -3.82498 -3.44029 -10.6494 
1 -1.94636 -1.69465 -10.5522 
1 -3.74535 -1.74163 -8.80921 
2 -2.03838 -3.45812 -8.92568 
1 -3.60488 -3.43135 -6.91974 
1 -1.90246 -1.67094 -6.9787 
1 -0.0759432 -1.76197 -8.79728 
1 -0.0662764 -3.48641 -7.15769 
1 -0.180654 -3.4097 -10.6601 
1 -0.104622 0.00793484 -6.96062 
1 5.32078 -0.129696 12.7057 
2 5.34277 -3.16341 12.5355 
1 -1.84649 0.153986 12.4923 
2 7.14459 -0.00231352 3.49892 
1 3.43122 -3.40509 -10.7994 
1 1.70493 -1.80951 -10.6203 
1 1.79525 -3.428 -8.95591 
2 3.59632 -1.71296 -8.97637 
1 3.57846 -3.49658 -7.17589 
1 1.74374 -1.74416 -7.20442 
1 7.22923 -1.44953 12.4657 
2 -12.4669 0.0706807 1.72196 
1 7.07993 -3.53417 -10.7545 
1 5.39723 -1.66931 -10.6425 
1 7.19517 -1.77065 -8.94169 
1 5.30771 -3.57701 -9.06054 
1 7.10582 -3.61679 -7.14871 
1 5.49722 -1.82891 -7.14432 
1 1.60531 0.0370839 12.525 
1 9.09803 -2.02325 -10.9056 
1 10.8571 -3.44025 -7.20858 
1 8.81318 -3.59895 -8.91308 
2 8.88001 -1.8421 -7.17163 
2 10.702 -1.73486 -8.99658 
1 12.7071 -1.61575 -7.44257 
1 -5.30193 -12.6291 -3.31595 
1 -1.84566 -14.2753 -5.09345 
1 -1.77507 -12.4717 -3.48148 
2 0.0279051 -14.2716 -3.50581 
1 -0.0678597 -12.6656 -5.47968 
2 1.91119 -12.3793 -3.72465 
1 3.5202 -12.561 -5.72906 
1 -10.6649 -8.87304 -5.37788 
1 -8.8713 -10.6164 -5.37312 
2 -8.63712 -8.99639 -3.46838 
1 -7.04102 -10.8421 -3.37214 
1 -5.40402 -10.7892 -5.36254 
1 -7.07222 -8.97798 -5.23365 
1 -5.34121 -8.88047 -3.46254 
1 -3.64267 -12.522 -5.12485 
2 -1.85137 -10.8205 -5.35797 
1 -3.67115 -10.709 -3.33092 
1 -3.68198 -8.86635 -5.23294 
2 -1.85406 -8.97713 -3.36066 
1 -0.00327409 -8.88048 -5.38111 
2 0.056605 -10.7719 -3.55684 
1 1.61943 -10.7009 -5.61795 
1 3.48279 -10.603 -3.7226 
1 3.41444 -8.91329 -5.59491 
1 1.80104 -8.89525 -3.64171 
1 5.05452 -12.5642 -3.75494 
2 6.89581 -10.8388 -3.71598 
1 5.20128 -10.7229 -5.57336 
1 7.02712 -8.92607 -5.6412 
2 5.26161 -8.97337 -3.8773 
1 8.59758 -10.7203 -5.4385 
2 8.73923 -8.9696 -3.68789 
1 10.6055 -9.00359 -5.64063 
1 -12.5811 -5.4938 -3.52332 
1 -10.7158 -7.26427 -3.41297 
1 -10.7609 -5.5299 -5.33891 
2 -8.81365 -7.1931 -5.19058 
1 -8.94666 -5.28835 -3.46045 
1 -7.12115 -7.11873 -3.36944 
1 -7.20697 -5.29251 -5.22419 
1 -5.47706 -7.11078 -5.22451 
1 -5.3763 -5.35281 -3.54829 
1 -1.88011 -7.16732 -5.22163 
1 -3.61111 -7.05271 -3.52699 
1 -3.65635 -5.31042 -5.2719 
1 -1.83208 -5.38623 -3.5566 
2 -0.148862 -5.41148 -5.33084 
1 -0.111421 -7.209 -3.60072 
2 1.86238 -7.17237 -5.49634 
1 3.63741 -7.13803 -3.777 
1 3.60421 -5.33219 -5.47778 
1 1.75504 -5.23561 -3.69497 
1 6.96747 -7.20709 -3.68263 
1 5.24724 -7.12386 -5.47405 
1 7.00693 -5.40512 -5.36806 
1 5.35841 -5.36086 -3.71634 
1 10.7404 -7.2857 -3.97504 
1 10.781 -5.21342 -5.53343 
2 8.7531 -7.24287 -5.66789 
2 8.90496 -5.39257 -3.68511 
1 12.5311 -5.1753 -3.57646 
1 -14.247 -3.68514 -3.40105 
2 -12.54 -1.92935 -3.71533 
1 -12.6296 -3.9073 -5.43468 
1 -10.694 -1.82991 -5.33246 
2 -10.8497 -3.73322 -3.68326 
1 -8.99411 -3.6684 -5.32194 
2 -8.98175 -1.91959 -3.45872 
1 3.08416 -0.0720563 14.3723 
1 1.76193 -0.0636026 -5.43729 
2 -7.14718 -1.81178 -5.29824 
1 -7.17094 -3.69721 -3.44579 
1 -5.35249 -3.50972 -5.28729 
1 -5.4678 -1.781 -3.31717 
1 -1.83425 0.0449574 -5.12317 
1 -3.70872 -1.6867 -5.13458 
1 -1.84666 -3.54002 -5.19632 
1 -3.64605 -3.56468 -3.55931 
1 -1.90192 -1.77452 -3.57269 
1 -0.0348417 -1.8997 -5.46637 
1 -0.026636 -3.50508 -3.65207 
1 -3.67572 0.0897211 -3.51997 
1 0.0694207 -0.151432 14.2709 
1 1.76911 -3.50355 -5.35523 
1 3.63 -1.68751 -5.40486 
1 3.60629 -3.50363 -3.67923 
2 1.8121 -1.78188 -3.59564 
1 3.45997 -1.7196 12.7072 
1 7.14581 -1.80038 -5.36857 
1 7.16057 -3.54936 -3.66902 
1 5.44932 -3.55844 -5.35043 
1 5.33734 -1.7805 -3.65155 
1 10.6074 -1.82134 -5.38787 
1 10.6883 -3.54974 -3.62549 
1 8.99473 -3.54795 -5.36155 
1 8.94704 -1.77723 -3.64289 
1 12.3342 -1.78648 -3.55258 
2 12.6711 -3.19198 -5.45502 
2 14.0755 -3.18528 -3.39434 
2 14.1686 -0.297461 -3.53296 
1 -5.18597 -12.5368 0.286253 
1 -1.92227 -14.0258 -1.6805 
1 -3.53346 -14.1806 0.282171 
1 -1.30207 -14.3629 1.53649 
1 -3.61051 -12.4195 -1.57877 
1 0.0111171 -14.7256 -0.509156 
1 2.06275 -14.2238 -1.83155 
1 3.40364 -14.1676 0.295266 
2 1.1477 -14.1201 1.63166 
1 4.79803 -14.0964 -1.78488 
1 -10.5173 -10.6715 0.125878 
1 -10.7358 -9.06249 -1.64318 
1 -8.79388 -10.7776 -1.53236 
2 -8.7061 -10.5988 1.86982 
1 -8.89917 -8.79206 0.0889138 
2 -10.7634 -8.86118 1.90569 
2 -7.29442 -12.4932 1.65153 
2 -7.033 -12.5861 -1.14557 
1 -7.11806 -10.4511 0.127422 
2 -5.3943 -10.5749 -1.62337 
2 -5.29437 -10.5995 1.9985 
1 -7.05556 -8.79011 -1.73569 
1 -7.07635 -8.67939 1.90946 
1 -5.36379 -8.71625 0.0839354 
1 -3.42341 -12.2505 1.83324 
1 -1.86573 -12.3265 0.0851548 
1 -0.193445 -12.141 1.81879 
1 -3.53245 -10.4926 0.158154 
1 -1.94961 -10.5221 -1.59158 
1 -1.79407 -10.2928 1.85589 
1 -3.68597 -8.73445 -1.62198 
1 -3.64294 -8.72735 1.79112 
1 -1.7679 -8.77002 0.0589464 
2 -0.0973536 -12.4662 -1.71701 
1 0.00815989 -8.89206 -1.69434 
1 -0.0423598 -10.5942 -0.0538819 
1 0.0191069 -8.74842 1.84008 
2 1.69116 -12.3864 0.0599072 
1 3.34103 -12.181 1.77596 
1 3.46407 -12.2638 -1.66305 
1 3.60279 -10.5662 -0.101626 
1 1.79081 -10.6175 -1.84817 
1 1.69628 -10.6104 1.75538 
1 3.57419 -8.7692 -1.83357 
1 3.41971 -8.76051 1.66646 
1 1.77764 -8.91119 -0.0541061 
1 5.21366 -12.4816 0.070781 
2 6.89804 -12.3974 -1.8229 
1 6.8889 -12.2939 1.77378 
1 7.03624 -10.7576 -0.0619922 
1 5.2326 -10.6967 -1.82806 
1 5.22781 -10.6205 1.70959 
1 7.02445 -9.02488 -1.99758 
2 7.01634 -8.94392 1.55675 
1 5.2276 -8.91711 -0.082275 
1 8.96696 -12.0991 -0.0738291 
1 8.94756 -10.8787 -2.1347 
1 10.6643 -8.84868 -1.99566 
1 10.6877 -8.83005 1.62854 
2 8.97318 -9.24884 -0.242794 
1 8.88494 -10.6548 1.81517 
1 -12.5949 -5.41575 0.253847 
1 -12.4496 -7.14797 -1.59204 
2 -10.6816 -7.16455 0.0747743 
1 -10.656 -5.3895 -1.82068 
1 -10.8683 -5.3493 1.79727 
1 -8.95315 -7.12552 -1.74096 
1 -9.02161 -7.02905 1.94153 
1 -9.09665 -5.38994 -0.0393856 
1 -7.2597 -7.06362 0.104281 
1 -7.20241 -5.41781 -1.71019 
1 -5.34082 -7.05398 -1.74587 
2 -7.22328 -5.50439 1.79621 
1 -5.22236 -7.01926 1.90602 
1 -5.30045 -5.42557 0.0126584 
1 -3.46481 -7.1085 0.0750911 
1 -1.84605 -7.06929 -1.79957 
1 -1.68178 -7.01803 1.94991 
1 -3.58807 -5.3899 -1.8 
1 -3.61018 -5.12122 1.6521 
2 -1.66888 -5.28608 0.00821451 
1 0.00582065 -7.18132 -0.00766407 
1 0.0382107 -5.37715 -1.97976 
1 0.0287696 -5.29064 1.81909 
1 3.49334 -7.11529 -0.0645645 
2 1.76541 -7.11257 -1.98488 
1 1.68566 -7.05818 1.72209 
2 3.6019 -5.37883 -1.87017 
1 3.52942 -5.39668 1.60468 
1 1.69217 -5.41279 -0.0740242 
1 7.11949 -7.24444 -0.252047 
1 5.30712 -7.26592 -1.93971 
1 7.03615 -5.39724 -1.89339 
1 5.22062 -7.26976 1.68363 
2 7.04146 -5.56687 1.61125 
1 5.34987 -5.37557 -0.2061 
1 10.537 -7.07761 -0.196343 
1 10.6043 -5.48255 1.59553 
1 10.7443 -5.34259 -1.985 
1 8.84539 -7.12203 -1.88515 
1 8.83756 -7.19839 1.6152 
1 8.82124 -5.2908 -0.288297 
1 12.4826 -7.10492 1.58551 
2 12.4549 -5.47631 -0.240774 
1 12.2444 -7.07135 -2.1346 
1 -14.2009 -3.70288 -0.0525946 
2 -14.1166 -1.72098 -1.68648 
1 -14.2673 -1.88595 1.7264 
1 -12.5108 -3.78472 -1.69483 
1 -12.439 -1.85999 0.00968194 
1 -12.5606 -3.61888 1.87843 
1 -10.7923 -3.6524 0.00365205 
1 -10.9256 -1.7947 -1.77934 
1 -10.8528 -1.80333 1.74652 
1 -8.98775 -3.55057 -1.69049 
2 -9.11626 -3.61021 1.80139 
1 -9.05482 -1.80539 -0.102986 
1 1.83184 -3.47659 12.4349 
1 8.88375 0.0740679 -8.83774 
1 -7.27019 -3.52085 -0.0710488 
1 -7.26267 -1.70562 -1.64777 
1 -7.25396 -1.70895 1.79538 
1 -5.46744 -3.67966 -1.70726 
2 -5.49756 -3.62458 1.78866 
2 -5.37531 -1.75283 -0.0968751 
1 -3.60882 -3.59158 -0.171915 
1 -3.65489 -1.65287 -1.75271 
2 -1.78145 -3.52996 -1.89669 
2 -3.56886 -1.71562 1.89493 
1 -1.88756 -3.48978 1.62279 
1 -1.89842 -1.67895 -0.044001 
1 -0.0710362 -1.69332 -1.77641 
1 0.00558421 -1.8211 1.79805 
1 1.55309 -2.0062 14.2461 
1 10.1913 0.0257381 -10.7817 
1 -0.00409602 -3.49505 -0.0663254 
1 -1.7438 -1.78594 14.245 
2 3.51064 -3.52688 -0.0496225 
2 1.71602 -3.55556 -1.76174 
1 3.67479 -1.81262 -1.96243 
1 1.88278 -3.53595 1.82317 
1 3.60795 -1.75661 1.82691 
1 1.63176 -1.68931 0.0565439 
1 -1.97527 -3.2749 12.4492 
1 7.0717 -3.6789 -0.115776 
1 7.1322 -1.71041 -1.95995 
1 7.10758 -1.9663 1.77853 
1 5.41687 -3.56548 -1.95554 
1 5.29218 -3.59426 1.855 
2 5.40712 -1.90096 -0.163037 
1 10.5468 -3.59636 -0.0452601 
1 10.6482 -1.88016 1.73706 
1 10.5827 -1.8432 -1.81551 
1 8.78192 -3.63799 -1.92998 
1 8.85342 -3.66498 1.68092 
2 8.8857 -1.84676 -0.0680731 
1 12.3435 -3.59651 -1.69499 
2 12.4996 -0.0980964 -1.62382 
1 12.4372 -1.89285 -0.0206339 
2 12.4186 -3.71048 1.63774 
2 14.2672 -3.7884 0.1209 
1 14.425 -1.74018 -1.46247 
1 14.3445 -1.85263 1.49276 
2 -5.25717 -12.6164 3.48318 
2 -2.95939 -14.1951 3.28372 
1 -0.228161 -14.2336 3.62971 
2 -3.39139 -12.3869 5.23508 
1 3.17298 -13.9632 3.37178 
1 -10.636 -10.8165 3.56032 
1 -10.5673 -8.93703 5.28678 
2 -8.71729 -8.82321 3.5933 
2 -8.88116 -10.5798 5.36162 
1 -7.02421 -10.9856 3.78362 
1 -5.31159 -10.7723 5.51327 
1 -7.06381 -8.75387 5.51146 
2 -5.43964 -8.84261 3.71747 
2 -0.0985073 -12.4133 5.42815 
1 -1.65616 -12.1512 3.52173 
1 -1.73431 -10.5086 5.39285 
1 -3.428 -10.4794 3.6393 
2 -3.59448 -8.82242 5.53257 
1 -1.76872 -8.76848 3.66966 
1 0.0161396 -8.76795 5.44255 
1 3.45405 -12.4555 5.24462 
1 1.53481 -12.293 3.6003 
1 0.00555712 -10.4863 3.57117 
1 1.74892 -10.5786 5.51165 
2 3.39353 -10.5833 3.73266 
1 3.45658 -8.79983 5.42347 
1 1.73063 -8.82098 3.49196 
1 5.27486 -12.2292 3.48999 
1 7.23225 -10.6522 3.62875 
1 5.29258 -10.7285 5.53819 
2 7.20921 -8.8426 5.3524 
2 5.27825 -8.89943 3.57897 
1 9.13693 -10.4595 5.49763 
2 9.07064 -8.74914 3.53828 
2 10.8868 -8.54568 5.29357 
1 -12.4258 -5.36142 3.63077 
1 -10.7479 -7.21667 3.72325 
1 -10.718 -5.35221 5.39057 
1 -8.81733 -7.08142 5.41621 
1 -9.09543 -5.43487 3.61825 
1 -7.13677 -6.93213 3.78707 
1 -7.15421 -5.26365 5.54155 
1 -5.38343 -6.94327 5.5576 
2 -5.35674 -5.29728 3.69859 
1 -1.78386 -7.00364 5.39952 
1 -3.5536 -7.12719 3.69946 
1 -3.55909 -5.27022 5.4922 
2 -1.74898 -5.20342 3.55359 
2 0.0412042 -5.27074 5.41676 
1 0.0124134 -7.04145 3.59826 
1 1.88143 -7.07537 5.36559 
1 3.3835 -7.0581 3.45801 
1 3.45048 -5.25279 5.30354 
1 1.75983 -5.26369 3.59026 
1 7.12365 -7.21986 3.41425 
1 5.15628 -7.16185 5.34985 
2 7.12437 -5.47288 5.17889 
2 5.14302 -5.43216 3.50192 
1 10.9651 -7.0689 3.37991 
1 10.6561 -5.50552 5.14263 
1 8.95049 -7.01221 5.32841 
1 8.96393 -5.55043 3.3178 
2 12.5818 -5.40734 3.52929 
1 -14.0435 -3.36056 3.6771 
1 -14.2986 -0.386108 3.6514 
1 -12.484 -3.45174 5.39297 
1 -12.4158 -1.76669 3.49217 
1 -10.7699 -1.71669 5.35812 
1 -10.8193 -3.58806 3.57382 
1 -8.96966 -3.58075 5.52556 
2 -8.96774 -1.76781 3.6548 
1 -7.07357 -1.5377 5.40179 
2 -7.28534 -3.545 3.79762 
1 -5.43871 -3.50693 5.46408 
1 -5.44584 -1.63434 3.58505 
2 1.8989 -0.0205542 -12.3339 
2 -3.66445 -1.69723 5.42296 
2 -1.78973 -3.45399 5.39778 
1 -3.57945 -3.47937 3.62608 
1 -1.71683 -1.75293 3.62629 
1 -3.5806 -1.61956 12.4708 
2 -0.197791 -3.80959 14.0486 
2 -1.98938 0.0124667 -12.3078 
1 0.065008 -1.57987 5.27272 
1 -0.00336227 -3.41463 3.57204 
1 1.79807 -3.43802 5.34926 
1 3.5855 -1.69427 5.25552 
1 3.54154 -3.45798 3.5991 
1 1.69892 -1.66903 3.58938 
1 1.84829 -0.0168812 5.34742 
1 3.61258 0.0437043 3.52132 
1 7.12902 -1.83773 5.32302 
1 7.07363 -3.64627 3.49046 
1 5.25662 -3.43861 5.33559 
1 5.29313 -1.84832 3.59923 
1 -0.0924487 -1.75529 12.4803 
2 10.6204 -1.92148 5.22801 
1 10.6745 -3.76679 3.36443 
2 8.8554 -3.75255 5.23072 
1 8.86831 -1.91296 3.50613 
2 12.4373 -1.86174 3.42519 
1 12.62 -3.88405 5.38168 
1 14.3489 -3.6713 3.31256 
1 14.3244 -1.86429 5.20109 
1 -8.78095 -8.9479 7.25 
1 -4.96766 -8.89366 10.8225 
1 -5.20995 -10.5537 8.89923 
1 -6.92474 -10.6536 7.22375 
2 -6.88953 -8.65849 9.15283 
1 -5.3015 -8.77872 7.28637 
1 -1.76383 -12.204 7.20873 
2 -1.8812 -8.69045 10.9406 
1 -1.80503 -10.3977 9.07988 
1 -3.62133 -10.6333 7.29168 
1 -3.4721 -8.70725 8.96629 
1 -1.75418 -8.62798 7.27175 
1 0.00403004 -10.5766 7.25195 
1 0.0345913 -8.57547 8.99392 
1 1.72571 -12.1824 7.37106 
1 1.67006 -10.4517 9.06906 
1 3.4277 -10.5395 7.27676 
1 3.55795 -8.84107 9.04774 
1 1.76446 -8.79055 7.28371 
1 1.92371 -8.82746 10.8303 
1 7.36672 -10.5485 7.1858 
1 5.18376 -8.77986 10.7586 
1 5.38219 -10.4988 8.83482 
1 7.13911 -8.75641 8.98743 
1 5.27048 -8.92366 7.17752 
1 9.09997 -8.71764 7.22816 
1 -10.6997 -5.47006 9.04652 
2 -10.5319 -7.0923 7.23765 
1 -8.85717 -7.19115 9.10276 
1 -8.81853 -5.37172 7.2269 
1 -8.85647 -5.27089 10.7119 
1 -5.3543 -5.10243 10.8112 
1 -6.98225 -6.93949 10.9699 
1 -7.12765 -5.35165 8.96309 
1 -5.3471 -6.93774 8.94107 
1 -7.1352 -7.0268 7.27406 
1 -5.27102 -5.16113 7.14635 
2 -3.59072 -6.91704 10.9446 
1 -1.88357 -5.1189 10.9202 
1 -1.80116 -7.00859 9.13763 
2 -3.58624 -5.24967 8.93343 
1 -3.50545 -6.99552 7.1996 
1 -1.78239 -5.26586 7.23238 
1 0.00590536 -7.08271 10.7833 
1 0.12745 -6.98646 7.15146 
2 -0.017705 -5.27154 9.1103 
1 3.77049 -6.93873 10.7974 
1 1.97805 -5.18962 10.7331 
1 1.89823 -7.03658 9.25623 
1 3.65412 -5.13247 9.15939 
1 3.64988 -7.0612 7.30109 
2 1.87973 -5.31625 7.34396 
1 7.11808 -7.03463 10.6903 
1 5.59638 -5.23248 10.9287 
1 5.34767 -7.07761 8.96104 
1 7.04243 -5.31519 8.89758 
1 7.16511 -7.09979 7.17331 
2 5.2257 -5.35538 7.1395 
1 8.6748 -5.238 10.7126 
1 10.413 -4.98993 9.20119 
1 10.7209 -6.76624 7.19729 
1 8.93578 -7.09536 9.03206 
1 8.91246 -5.31114 7.15573 
2 -12.1251 -1.7473 7.36711 
1 -9.12059 -1.76096 10.4607 
1 -11.0693 -2.88586 9.45004 
2 -10.7089 -3.84741 7.18784 
1 -8.87312 -3.64261 8.89452 
2 -9.13798 -1.81254 7.19568 
1 -11.2462 -0.56585 9.48679 
1 -7.19342 -3.46646 10.6903 
1 -5.39358 -1.52922 10.7746 
1 -7.29793 -1.67653 8.98139 
2 -5.37041 -3.41658 8.97427 
1 -7.15343 -3.52372 7.26253 
1 -5.54968 -1.61458 7.24059 
1 -7.25964 -1.63042 12.4033 
1 -5.26789 -3.27547 12.3797 
1 -3.58733 -3.23879 10.7445 
1 -1.77681 -1.59799 10.7532 
1 -3.63468 -1.57411 9.02947 
2 -1.81193 -3.40942 8.97581 
1 -3.56961 -3.42538 7.2504 
1 -1.79515 -1.63518 7.14813 
1 -0.0590355 -1.60695 9.10352 
1 -0.00754369 -3.31657 10.8005 
1 -5.46965 0.00894675 12.5994 
1 -3.61268 -0.0274967 -14.2229 
1 -0.030156 0.104248 10.7294 
2 -0.0149049 -3.339 7.15394 
1 1.84476 -1.72026 7.16728 
2 3.56643 -3.43391 7.21525 
1 1.74106 -1.64687 10.7667 
1 1.82936 -3.36674 9.12312 
1 3.63433 -1.72631 8.98445 
1 3.67671 -3.49374 10.8495 
1 1.94055 -0.0443088 8.95016 
1 3.53517 -0.113792 10.8214 
1 0.128762 -5.2261 12.1345 
1 7.21426 -3.46733 10.8692 
1 5.42451 -3.52108 8.98314 
1 7.06711 -3.66751 7.04688 
1 5.34959 -1.67909 10.6759 
1 7.11746 -1.79332 8.83277 
1 5.32496 -1.62622 7.07116 
1 3.78337 -5.10501 12.601 
1 5.32587 -0.0952311 8.88422 
2 1.95043 -6.97247 12.5244 
1 1.93819 -4.94936 14.1859 
1 8.67665 -3.46086 8.83207 
1 9.05683 -1.95552 10.7539 
2 10.7769 -2.17444 8.81005 
1 10.8736 -3.84394 7.03019 
1 8.82615 -1.92303 6.91928 
1 -3.54548 -5.13707 12.6723 
1 -1.82391 -6.70101 12.67 
2 12.6132 -1.94806 6.93693 
1 -0.0174924 -8.55148 12.5562 
1 -0.00630224 -6.6024 14.0688 
2 7.61484 0.11667 -10.7745 
1 5.37911 0.0174004 -5.21299 
2 12.5258 -0.0910904 -5.46889 
1 -7.28202 0.0789475 10.7766 
1 1.75889 -0.155511 -1.80434 
1 -0.0230093 0.00191996 3.50471 
1 7.02858 -0.0698849 -0.0392984 
1 -1.7997 0.0477946 5.36979 
1 12.4468 -0.0794513 1.56435 
2 3.57946 -0.0282967 -0.086768 
1 -1.74957 -0.0648177 1.75171 
1 -12.5172 -0.0682325 5.22705 
1 -10.7818 0.00753728 3.58233 
1 -0.0575693 -0.129669 -3.56777 
2 -9.02751 0.000391709 -5.4018 
1 -8.9171 0.0735652 5.44731 
1 3.70358 0.0295636 -6.9957 
1 -3.60328 0.0243198 -7.05558 
1 -5.59987 0.100819 9.02574 
1 -7.19964 1.89484 -12.1573 
1 -5.44849 3.69878 -12.385 
1 -5.53417 0.0365037 -12.4814 
2 -1.82725 1.81307 -14.457 
2 -3.74891 1.85327 -12.5572 
1 -1.90253 3.54688 -12.4716 
1 2.13685 6.97645 12.6094 
1 3.6998 5.04441 12.5015 
2 -0.106708 1.78081 -12.4175 
1 0.0334387 3.40556 -14.1425 
1 3.39665 3.57541 -14.1419 
1 3.55664 1.82242 -12.3771 
2 1.75976 3.61828 -12.2718 
1 1.82986 1.78838 -14.3411 
1 2.0155 4.95928 14.1814 
1 5.26506 1.79434 -14.2604 
1 7.23013 1.77103 -12.5126 
1 5.31646 3.62537 -12.5768 
1 -1.78869 7.30195 -12.3803 
1 -3.36179 5.51832 -12.5343 
1 -0.0337649 5.43857 -12.3545 
1 1.72398 7.24874 -12.11 
1 3.49165 5.48371 -12.4633 
1 -12.372 1.87297 -7.38475 
1 -11.1212 2.72157 -9.40229 
1 -8.95068 1.83079 -10.501 
2 -8.93317 3.72028 -9.00009 
2 -9.28277 2.0091 -7.29187 
1 -11.012 3.92946 -7.29739 
1 -11.1062 0.391237 -9.52415 
1 -7.11024 3.61373 -10.5901 
2 -5.37052 1.80103 -10.4791 
2 -7.18203 1.70027 -8.74099 
1 -5.36033 3.75891 -8.89141 
1 -7.14727 3.70299 -6.99151 
2 -5.33349 1.8662 -7.06943 
1 -1.57696 7.13303 12.3604 
1 -3.37694 5.44919 12.6311 
1 -3.54463 3.73211 -10.7385 
1 -1.96771 1.79728 -10.7171 
1 -3.62001 1.77996 -8.87418 
2 -1.83025 3.47055 -8.83254 
2 -3.48032 3.71517 -7.0031 
1 -1.83 1.71393 -6.91991 
1 -0.0888552 1.78258 -8.86546 
1 -0.242855 3.59355 -10.6479 
1 -0.115673 3.62038 -7.09944 
1 3.67024 3.52977 -10.7322 
1 1.77312 1.87389 -10.6858 
1 3.67824 1.79351 -8.85594 
2 1.83616 3.5841 -8.8482 
1 3.72681 3.62318 -7.18063 
2 1.71174 1.81867 -7.07617 
1 0.173192 5.28741 12.4561 
2 7.03101 3.67779 -10.7467 
1 5.41235 1.79323 -10.6535 
1 7.26905 1.9295 -8.95059 
1 5.3062 3.50995 -8.95841 
1 7.1536 3.59951 -7.02425 
1 5.41663 1.85338 -7.18345 
2 -3.60305 0.131108 7.294 
2 7.17007 0.0287037 -6.98199 
1 8.96065 2.24497 -10.7114 
2 10.8396 1.86723 -8.97406 
1 9.01304 3.69211 -8.78804 
1 8.9344 1.80474 -7.19076 
1 10.7536 3.62247 -7.04437 
2 12.4984 1.79585 -6.89372 
1 7.16886 1.50246 12.4447 
2 10.7405 0.0474522 -7.22669 
1 5.49069 3.31018 12.3649 
1 -10.5429 5.57819 -8.98351 
1 -10.6196 7.26084 -7.17216 
1 -8.91289 7.43988 -8.82188 
1 -8.99129 5.38216 -7.07775 
1 -8.69264 5.53898 -10.5521 
2 -5.46225 5.49295 -10.7913 
1 -7.14802 7.49032 -10.4988 
1 -7.16373 5.43305 -8.7452 
1 -5.31164 7.23706 -8.74551 
2 -7.14731 7.27637 -7.08294 
1 -5.45767 5.42756 -6.99603 
2 -3.49951 7.16224 -10.7 
1 -1.86828 5.46469 -10.5277 
1 -1.80226 7.24995 -8.80681 
2 -3.70655 5.49766 -8.922 
1 -3.58983 7.13904 -7.04692 
1 -1.73499 5.35653 -7.00052 
1 0.0279343 7.16233 -7.11423 
2 -0.0284213 5.38218 -8.90637 
1 -0.0737516 7.2485 -10.5449 
1 3.60078 7.14649 -10.6281 
1 1.81011 5.35232 -10.6002 
2 1.78467 7.13179 -8.85168 
1 3.64145 5.28924 -8.88237 
1 3.51638 7.12275 -7.13266 
1 1.83942 5.32175 -7.12008 
1 7.12778 7.08456 -10.6436 
1 5.28987 5.41231 -10.7075 
1 7.08599 5.23418 -8.75576 
1 5.41981 6.9943 -8.75312 
1 7.22336 7.19093 -7.07477 
1 5.30391 5.29717 -7.15585 
1 9.04974 5.51071 -10.4974 
1 10.7169 5.34146 -8.71671 
1 8.90623 7.10405 -8.78889 
1 8.87805 5.30003 -7.11609 
2 10.497 7.04268 -7.07651 
1 -8.96287 9.1503 -7.02042 
1 -5.20104 9.01792 -10.4839 
1 -5.1129 10.8757 -8.81029 
1 -6.98248 9.17366 -8.84016 
1 -5.41344 9.04197 -7.05142 
1 -7.15778 10.7103 -7.01635 
2 -1.84588 9.0253 -10.5787 
2 -1.91019 10.8725 -8.81448 
1 -3.54206 10.7666 -6.98643 
1 -3.52346 8.92302 -8.67222 
1 -1.78985 8.97683 -7.06057 
1 -0.035126 8.91464 -8.79929 
1 -1.62796 12.4209 -6.99202 
1 0.0846729 10.7153 -10.3837 
1 -0.141962 10.5156 -7.0804 
1 1.75787 9.00362 -10.6235 
1 1.79514 10.6551 -8.71931 
1 3.65643 11.1035 -7.17293 
1 3.57266 8.97153 -8.82096 
1 1.85011 8.98983 -7.00397 
2 1.21155 12.5585 -7.16336 
1 5.37362 8.85258 -10.4151 
1 5.44567 10.6004 -8.72693 
1 7.24626 10.6115 -7.05909 
1 7.10256 8.66991 -8.81056 
1 5.32383 8.88997 -7.09857 
1 8.91118 8.98481 -7.12227 
2 -14.1575 3.35515 -3.58037 
1 -12.6062 0.0589167 -5.43278 
2 -12.6114 3.81533 -5.4491 
1 -14.2761 -0.0318891 -3.66771 
1 -12.523 1.65396 -3.47741 
2 -10.9803 1.90519 -5.44699 
1 -11.0176 3.62441 -3.57814 
1 -9.12407 3.65797 -5.36051 
2 -9.25015 1.75257 -3.58355 
1 -7.28653 1.90961 -5.37541 
2 -7.15009 3.53707 -3.69422 
1 -5.45721 3.68933 -5.39181 
1 -5.28184 1.92846 -3.52285 
2 -7.15049 0.118988 -3.37461 
1 -3.60281 1.88767 -5.30073 
1 -1.83214 3.6921 -5.15364 
1 -3.62441 3.64833 -3.52288 
1 -1.92006 1.80672 -3.52331 
1 -0.100031 3.68505 -3.54256 
1 1.71429 3.31076 12.4669 
1 -0.16943 1.88838 -5.28973 
1 3.62378 1.79458 -5.4521 
2 1.65659 3.56291 -5.34641 
1 3.59921 3.65946 -3.59821 
2 1.75493 1.60056 -3.66107 
1 3.56822 1.65507 12.5715 
1 7.17388 1.83278 -5.29673 
1 7.00348 3.53479 -3.60944 
1 5.39052 3.59823 -5.30248 
1 5.38364 1.77199 -3.57895 
1 -7.11592 0.191612 7.2218 
1 7.18048 -0.0386983 -3.64281 
1 10.6387 1.86127 -5.36465 
1 10.7868 3.59943 -3.61714 
2 8.91097 3.57627 -5.27262 
1 8.83169 1.86421 -3.53543 
1 12.3786 1.65012 -3.71533 
1 9.01055 0.16645 -5.3549 
1 1.53709 1.92712 14.3616 
1 12.5422 3.5237 -5.29116 
1 14.2138 3.31534 -3.39216 
1 5.37287 -0.060052 5.2398 
1 -12.7508 5.35717 -3.58685 
1 -10.7561 7.25429 -3.51724 
1 -10.8222 5.57792 -5.39616 
2 -8.93052 7.13519 -5.23888 
1 -9.08041 5.27586 -3.52713 
1 -7.15099 7.10725 -3.5057 
1 -7.17764 5.4072 -5.35769 
1 -5.48323 7.1671 -5.25093 
1 -5.44634 5.36839 -3.62688 
1 -1.91553 7.10642 -5.29344 
1 -3.61234 7.19646 -3.48757 
1 -3.6533 5.52909 -5.28674 
1 -1.84015 5.4317 -3.55692 
1 -0.0642534 5.49324 -5.35358 
2 -0.12517 7.18515 -3.6185 
1 1.79045 7.19319 -5.34683 
2 3.52756 7.11111 -3.55489 
1 3.58845 5.33946 -5.40833 
1 1.72214 5.40763 -3.55666 
1 7.18955 6.98161 -3.48261 
1 7.08935 5.3511 -5.27125 
2 5.38352 7.13332 -5.28389 
1 5.28976 5.40067 -3.45956 
1 10.5817 7.12291 -3.56055 
1 10.9274 5.38534 -5.40027 
1 8.83436 7.00511 -5.27658 
1 8.97204 5.34752 -3.57113 
2 12.5845 5.53835 -3.47985 
1 -10.642 9.01011 -5.3644 
1 -8.87252 10.7994 -5.19043 
1 -8.91623 8.93781 -3.55285 
1 -10.583 10.5108 -3.3764 
1 -7.22697 10.8041 -3.46091 
1 -5.41293 10.7355 -5.31086 
1 -7.18221 8.99866 -5.21824 
1 -5.52206 8.90125 -3.48617 
1 -5.48323 12.5159 -3.64066 
1 -1.73095 10.6423 -5.28794 
1 -3.67068 10.6554 -3.42719 
2 -3.6551 8.90687 -5.33253 
1 -1.89465 8.89551 -3.60347 
1 -0.108226 10.6399 -3.48563 
1 -0.0637129 8.94426 -5.34174 
1 -1.92044 12.4294 -3.4752 
1 -3.47474 12.4314 -5.25803 
2 1.72359 10.7857 -5.42222 
1 3.52567 10.8787 -3.44208 
1 3.62707 8.98748 -5.27131 
1 1.92285 9.08424 -3.61772 
1 7.18267 10.7362 -3.51381 
2 5.35031 10.7146 -5.44026 
1 7.18719 8.88447 -5.23154 
2 5.36552 9.05329 -3.47062 
1 10.5954 8.80455 -5.18889 
1 8.91145 10.5688 -5.28674 
1 8.90091 8.88745 -3.52432 
1 -0.141761 12.4351 -5.17482 
1 -3.68151 14.2231 -3.40818 
1 -0.00824065 14.1696 -3.43077 
1 1.69472 12.2765 -3.39524 
1 3.62581 12.4484 -5.26287 
2 1.72194 13.9215 -5.12555 
1 3.51821 14.2558 -3.51506 
1 5.47022 12.5668 -3.60488 
1 -14.5452 3.35255 -0.0170793 
1 -14.5401 1.50703 -1.76212 
1 -12.7765 1.69276 -0.0587693 
1 -14.4151 1.54565 2.10066 
2 -12.7511 3.4158 1.95978 
1 -12.7728 3.64779 -1.6176 
1 0.0234653 1.64148 12.5501 
1 -14.6279 -0.0553792 0.0758388 
1 -12.543 0.00245917 -1.78232 
2 -10.8921 3.60843 -0.0712974 
1 -10.9418 1.94811 -1.75621 
1 -10.6598 1.84788 1.72639 
1 -9.22968 3.70933 -1.83383 
1 -9.05083 3.59077 1.72739 
1 -9.0815 1.93819 -0.0803151 
1 -9.13328 0.0336781 -1.72115 
1 -7.15745 0.113725 -0.0926464 
1 -7.31561 3.57617 -0.119941 
1 -7.32762 1.90216 -1.73 
1 -7.21117 1.86021 1.72619 
1 -5.47767 3.68993 -1.74976 
1 -5.44777 3.66589 1.79455 
1 -5.40947 1.8473 -0.0166606 
2 -5.4389 0.0117196 1.84975 
1 -5.34564 0.11915 -1.7463 
1 -1.95272 0.0722803 -1.80161 
2 -3.67722 3.62037 0.0861801 
1 -3.69037 1.80337 -1.70238 
2 -1.7973 3.5664 -1.82355 
1 -3.54735 1.7772 1.78578 
1 -1.77343 3.68964 1.76778 
1 -1.73347 1.84993 -0.0382329 
1 -0.095402 1.7229 -1.85284 
1 -3.53205 0.0732569 0.0397852 
1 -0.0409409 1.86445 1.7238 
1 0.0244436 3.62684 0.0937719 
2 3.55367 3.59074 0.0493515 
1 3.64433 1.78662 -1.93265 
2 1.6646 3.57391 -1.95723 
1 3.57028 1.88208 1.74851 
1 1.92091 3.62961 1.86391 
2 1.6363 1.81859 -0.115932 
1 -3.5428 0.0599522 3.66834 
2 1.75061 0.0576198 1.71342 
1 7.149 3.67978 0.0210939 
1 7.22663 1.822 -1.86797 
1 7.11437 1.79756 1.69287 
1 5.43204 3.65843 -1.76177 
1 5.5321 3.54367 1.82945 
2 5.45108 1.85797 -0.0982171 
1 5.35531 0.0290116 -1.93173 
1 5.37466 0.0863974 1.65381 
1 10.7055 3.53172 0.129358 
1 10.768 1.80048 1.66683 
2 10.6224 1.75489 -1.8002 
1 8.92552 3.5477 -1.84763 
1 8.86675 3.5246 1.69 
1 8.91262 1.81038 -0.04761 
1 12.4674 1.75139 0.0257274 
2 8.88454 -0.0482648 1.69889 
1 12.5634 3.56791 1.67015 
1 12.4741 3.50559 -1.7336 
1 10.6475 -0.0579241 0.0510933 
1 8.78942 -0.0859665 -1.87796 
1 14.4006 0.127987 0.175651 
1 14.3216 3.68795 -0.180347 
2 14.2505 1.67408 -1.68045 
1 14.4184 1.96458 1.55964 
2 -9.00781 0.0656919 1.76187 
1 -12.7502 7.03716 -1.79995 
1 -12.9647 5.25035 0.0644188 
1 -12.5829 7.05644 1.65164 
1 -10.8769 6.88059 -0.131919 
1 -10.9373 5.38385 -1.94357 
1 -10.9281 5.20773 1.7773 
1 -8.99065 7.05393 -1.82107 
2 -9.07655 7.07599 1.71053 
1 -9.11723 5.29253 -0.0516719 
1 -7.23102 6.91426 -0.00713533 
1 -7.32557 5.30369 -1.77089 
2 -5.47713 7.10479 -1.70717 
1 -7.27398 5.25023 1.70586 
1 -5.54046 7.09121 1.74589 
1 -5.38562 5.37383 -0.0506693 
1 -3.71972 7.20467 0.0172758 
1 -1.93419 7.0485 -1.69529 
1 -1.74195 7.27052 1.86338 
1 -3.69085 5.40068 -1.8117 
1 -3.56911 5.42574 1.82035 
2 -1.84233 5.41784 0.0300886 
1 -0.0932998 7.21874 0.108818 
1 -0.108719 5.33688 -1.79897 
1 -0.0700975 5.39728 1.67678 
1 3.49249 7.13444 0.0808552 
1 1.69232 7.13476 -1.74113 
2 1.79366 7.27172 1.75968 
1 3.46733 5.24257 -1.81036 
2 3.71665 5.3246 1.91794 
1 1.7734 5.51385 0.00102457 
1 7.05425 7.04576 0.0338762 
1 7.17276 5.26914 -1.72803 
2 5.38983 7.08179 -1.79125 
1 7.15702 5.48394 1.80628 
1 5.38628 7.24236 1.82822 
1 5.29555 5.34474 0.00653921 
1 10.6552 6.914 -0.081821 
1 10.775 5.25479 1.69572 
1 10.6597 5.21737 -1.84637 
1 8.96399 7.05918 -1.80057 
2 9.07556 7.30193 1.76833 
1 8.93179 5.27764 0.0227572 
2 12.1392 7.17787 1.74422 
1 12.1828 7.2258 -1.70482 
1 12.5464 5.38046 -0.0433609 
2 -8.93261 10.5775 -1.45111 
1 -9.14022 10.5103 1.54834 
2 -10.8709 8.76481 -1.70138 
1 -10.9883 8.88728 1.69888 
1 -9.18045 8.68232 -0.000230069 
1 -7.14311 10.6121 0.0830995 
1 -5.43922 10.7169 1.85953 
1 -5.42367 10.7109 -1.82393 
1 -7.28094 8.81912 -1.60758 
1 -7.24681 8.86784 1.57521 
1 -5.40274 8.92267 0.0693321 
2 -5.368 12.3829 0.0289245 
1 -7.06213 12.5522 -1.76658 
1 -3.70606 10.5408 0.0373147 
2 -1.81134 10.7601 1.89373 
1 -1.98042 10.6773 -1.71613 
1 -3.69761 8.85956 -1.77469 
2 -3.70329 8.9182 1.87993 
1 -1.86633 8.85417 0.0419163 
2 -0.0866951 8.98687 -1.65802 
1 -0.179138 12.2586 -1.64906 
1 -1.9515 12.4066 0.0772387 
1 -3.65293 12.4245 -1.78618 
1 -0.0330603 9.00392 1.752 
1 -0.031186 10.7867 0.0536597 
1 3.59926 10.8561 0.0517067 
1 1.84782 10.6985 1.77927 
1 1.76931 10.6783 -1.67827 
1 3.49043 8.90935 -1.66637 
1 3.66032 8.86265 1.81473 
1 1.80692 8.97929 0.0336728 
1 -3.25594e-05 12.4283 1.84121 
1 3.683 12.5577 1.80912 
1 7.28734 10.6677 -0.088979 
1 5.50968 10.5511 1.79106 
2 5.43039 10.7792 -1.66778 
1 7.24683 8.82005 -1.85185 
1 7.18723 8.96044 1.8009 