ITEM: TIMESTEP
1420000
ITEM: NUMBER OF ATOMS
1289
ITEM: BOX BOUNDS pp pp pp
-100 100
-100 100
-100 100
ITEM: ATOMS type x y z 
1 -1.6492 -7.08619 -12.3618 
1 -3.53221 -5.45558 -12.4862 
1 -0.14748 -5.29011 -12.3627 
1 1.63613 -6.95567 -12.5637 
1 3.35859 -5.26608 -12.5699 
1 -7.03244 -1.66757 -12.2741 
2 -5.5279 -3.6656 -12.2264 
1 -5.50308 0.226159 -12.4775 
2 -1.82847 -1.74792 -14.2106 
2 -3.85166 -1.83774 -12.3588 
1 -2.02503 -3.54085 -12.4226 
1 0.0670856 -3.64446 -14.1752 
2 -2.01565 0.128234 -12.4954 
1 -0.131808 -1.65721 -12.4402 
2 3.3149 -3.39917 -14.1594 
1 1.59408 -3.51806 -12.3572 
1 3.46925 -1.83963 -12.3044 
1 1.4811 -1.78421 -14.4279 
1 5.09415 -0.177592 12.6363 
2 3.36117 -0.118334 -14.3277 
2 5.04417 -3.53659 12.3748 
1 5.20075 -1.82408 -14.3776 
2 7.21741 -1.93189 -12.6065 
2 5.27597 -3.63691 -12.562 
1 6.91474 -1.90568 12.5224 
1 -1.81917 -12.7613 -7.16439 
1 -9.00515 -9.03396 -7.12343 
2 -5.33306 -10.705 -8.88593 
1 -5.21101 -8.99269 -10.6271 
1 -7.24539 -8.99513 -9.00858 
1 -5.43149 -9.10272 -7.09395 
1 -7.23251 -10.5862 -7.13877 
1 -2.07288 -11.0227 -9.02453 
1 -1.80853 -8.93749 -10.7254 
1 -3.747 -10.914 -7.00421 
2 -3.44902 -8.9763 -8.73521 
1 -1.81146 -8.85124 -6.92705 
1 -0.263675 -8.87856 -8.94433 
2 -0.212214 -10.7883 -7.21136 
1 -0.134071 -10.7788 -10.4809 
1 1.62857 -12.442 -7.00792 
1 1.59605 -9.04455 -10.7193 
2 1.58036 -10.6786 -8.85331 
1 3.50335 -10.7461 -7.17732 
2 3.68217 -8.87096 -8.83184 
1 1.75595 -8.89175 -7.18941 
1 5.40952 -10.6326 -8.65006 
1 7.17799 -8.82797 -8.95252 
1 5.45753 -8.76221 -7.11435 
1 7.29942 -10.6584 -6.93762 
1 5.46774 -8.82041 -10.6409 
1 8.78972 -8.8808 -7.23609 
1 -10.6464 -5.32155 -8.70145 
1 -8.92574 -5.32584 -10.4332 
1 -8.90645 -7.25805 -8.89195 
2 -8.8222 -5.31945 -7.03178 
2 -10.6256 -7.19747 -6.92011 
1 -7.12849 -7.05221 -10.6957 
1 -5.50197 -5.31397 -10.5687 
1 -7.10167 -5.41095 -8.78469 
1 -5.34513 -7.31999 -8.89823 
2 -7.13061 -7.21934 -7.18837 
1 -5.42239 -5.31193 -6.99066 
2 -3.63604 -7.16248 -10.6434 
1 -1.91101 -5.28823 -10.6485 
1 -1.91313 -6.96583 -8.81775 
1 -3.7225 -5.396 -8.85951 
1 -3.7504 -7.12746 -7.03438 
2 -1.94563 -5.28448 -7.07819 
2 -0.11205 -7.17925 -7.10865 
1 -0.051238 -7.24111 -10.586 
2 -0.0858698 -5.32254 -9.05575 
2 3.51183 -7.19648 -10.5948 
1 1.72882 -5.40491 -10.7046 
1 1.65998 -7.23559 -8.91822 
1 3.61268 -5.27758 -8.9928 
1 3.62781 -7.10565 -7.12508 
2 1.8237 -5.36186 -7.36942 
1 7.21149 -6.81813 -10.673 
1 5.24446 -5.41184 -10.8352 
1 5.39368 -7.00499 -8.90375 
1 7.00207 -5.20528 -8.86376 
1 7.00642 -6.88984 -7.13843 
1 5.2312 -5.32589 -7.05668 
1 8.98426 -5.00207 -10.5748 
1 10.7133 -4.73474 -8.87395 
1 10.7621 -6.8215 -7.26593 
2 8.89175 -6.81704 -8.87154 
1 8.90915 -5.15087 -7.10134 
1 -12.6008 -1.67169 -6.94474 
1 -10.8324 -1.85935 -8.55658 
1 -9.02597 -1.76411 -10.5184 
1 -10.9751 -3.73126 -6.95653 
1 -8.99957 -3.53912 -8.68848 
1 -8.96013 -1.93839 -6.87561 
1 -10.7236 -0.106404 -6.97495 
1 -9.12917 -0.124215 -8.82517 
1 -7.23158 -3.52927 -10.6056 
1 -5.45713 -1.61157 -10.5089 
1 -7.20386 -1.77302 -8.76221 
1 -5.51803 -3.41228 -8.8398 
1 -7.13409 -3.52848 -6.99258 
1 -5.28788 -1.72319 -7.13501 
1 3.23559 0.00526356 14.1696 
1 -3.76053 -3.69944 -10.5426 
1 -1.98901 -1.74426 -10.6459 
1 -3.63286 -1.77835 -8.86547 
2 -1.8141 -3.40993 -8.85575 
1 -3.70787 -3.54322 -7.08956 
1 -1.91401 -1.77153 -7.05001 
1 0.0688859 -3.50198 -7.11296 
1 -0.137826 -1.68502 -8.80271 
1 -0.244435 -3.52672 -10.8133 
1 -3.70328 0.0243148 -10.6089 
1 -0.230492 -0.0702748 -10.6773 
1 3.45551 -3.56004 -10.7499 
1 1.51729 -1.75721 -10.7251 
1 1.62895 -3.48709 -9.09831 
2 3.54353 -1.85998 -9.08291 
1 3.59801 -3.56308 -7.03841 
1 1.79192 -1.9267 -7.10252 
1 3.45398 -1.7616 12.3527 
1 1.78656 -3.60825 12.2745 
1 6.95662 -3.5657 -10.5367 
1 5.38613 -1.78746 -10.7678 
1 7.10154 -1.71016 -8.98661 
1 5.27524 -3.53926 -8.96698 
1 6.97645 -3.5773 -7.15536 
1 5.24437 -1.83985 -7.14618 
1 8.95155 -2.16741 -11.0162 
1 10.8779 -3.43213 -6.99316 
1 8.74095 -3.47889 -8.7745 
2 8.7101 -1.72757 -7.09566 
2 10.6924 -1.67183 -8.9917 
1 12.7315 -1.73147 -7.24719 
1 1.73524 -1.98695 14.1099 
1 0.022411 -1.82694 12.3784 
1 -1.82061 -14.3686 -4.94734 
1 -3.69881 -12.6809 -5.25782 
2 -0.0134149 -14.4619 -3.24146 
1 0.0108041 -12.6517 -5.34493 
2 1.94487 -12.5574 -3.82675 
1 3.5545 -12.5075 -5.67096 
1 5.08608 -12.5737 -3.75901 
1 -10.6493 -9.03553 -5.28157 
1 -8.86285 -10.7383 -5.15701 
2 -8.97233 -9.06506 -3.45718 
1 -5.39376 -12.5762 -3.39295 
1 -7.17431 -10.7815 -3.39279 
1 -5.58412 -10.7586 -5.25487 
1 -7.14139 -8.97763 -5.24864 
1 -5.26839 -8.91084 -3.65304 
1 -1.80733 -12.5714 -3.3959 
2 -1.988 -10.8953 -5.3655 
1 -3.57439 -10.7681 -3.55649 
1 -3.78356 -8.9958 -5.45306 
2 -1.86065 -8.90503 -3.61491 
1 0.0771357 -8.93459 -5.34224 
2 -0.0135261 -10.8009 -3.71045 
1 1.75734 -10.6291 -5.43791 
1 3.52192 -10.6166 -3.6791 
1 3.51767 -8.96342 -5.43447 
1 1.75002 -8.90661 -3.58241 
2 7.35389 -10.8832 -3.83228 
1 5.28743 -10.6811 -5.45556 
1 7.18431 -8.82405 -5.44993 
2 5.42033 -8.86701 -3.71734 
1 9.26681 -10.5428 -5.42006 
2 8.90038 -8.78225 -3.73731 
1 10.8041 -8.65 -5.534 
1 -12.606 -5.34709 -3.36454 
1 -10.8335 -7.08083 -3.53341 
1 -10.8811 -5.39169 -5.24473 
2 -8.77933 -7.06618 -5.13445 
1 -8.99864 -5.32758 -3.46341 
1 -7.03249 -7.16626 -3.41677 
1 -7.03814 -5.29226 -5.17693 
1 -5.40017 -7.15519 -5.344 
1 -5.41242 -5.35912 -3.46861 
1 -1.84709 -7.18531 -5.32305 
1 -3.69179 -7.14918 -3.66073 
1 -3.66764 -5.4044 -5.33631 
1 -1.87603 -5.34303 -3.5692 
1 -0.0696331 -7.15276 -3.65031 
2 -0.105578 -5.31776 -5.30312 
2 1.88263 -7.0784 -5.35989 
1 3.67668 -7.17333 -3.49896 
1 3.64084 -5.31125 -5.24142 
1 1.72471 -5.35869 -3.61921 
1 7.08039 -7.01272 -3.52816 
1 5.46834 -7.0778 -5.42748 
1 7.08543 -5.26678 -5.37838 
1 5.38428 -5.25025 -3.63508 
1 10.7524 -7.09014 -3.65368 
1 10.7568 -5.13034 -5.34822 
2 8.9602 -7.01979 -5.54535 
2 8.93555 -5.27353 -3.57501 
1 12.5708 -5.06182 -3.18343 
1 -14.3167 -3.40417 -3.19926 
1 -12.8366 -3.58392 -5.17789 
2 -12.5445 -1.75689 -3.51987 
1 -10.8012 -1.83233 -5.34853 
2 -10.7993 -3.62887 -3.49305 
1 -8.95761 -3.62805 -5.22393 
2 -9.05016 -1.73151 -3.43894 
1 -1.74968 -1.88714 14.0644 
2 -7.04564 -1.83781 -5.26668 
1 -7.13231 -3.62303 -3.35757 
1 -5.29282 -3.59014 -5.34726 
1 -5.28046 -1.81435 -3.49869 
1 -3.49406 -1.66108 -5.26479 
1 -1.91326 -3.58217 -5.27644 
1 -3.6419 -3.61139 -3.43026 
1 -1.72531 -1.68456 -3.60214 
1 -0.0102941 -1.84587 -5.46266 
1 -0.142927 -3.48548 -3.60465 
1 -0.0801191 0.127123 -3.71773 
1 3.59653 -0.0680953 -3.69672 
1 1.79297 -3.70739 -5.35818 
1 3.51544 -1.79201 -5.41238 
1 3.63756 -3.44336 -3.68187 
2 1.76343 -1.78739 -3.6674 
1 1.68457 -0.0377405 -5.55753 
1 6.96802 -1.91224 -5.37466 
1 7.09534 -3.49435 -3.47438 
1 5.30593 -3.54623 -5.40166 
1 5.3652 -1.76861 -3.47397 
1 -1.86561 -3.63103 12.3515 
1 10.5099 -1.74801 -5.34577 
1 10.7257 -3.35504 -3.65051 
1 8.77514 -3.40325 -5.30762 
1 8.90417 -1.78797 -3.48172 
1 12.2751 -1.62702 -3.46383 
2 12.5458 -3.27351 -5.19153 
2 12.4984 -0.159649 -5.27852 
1 -3.62043 -1.71304 12.4577 
2 14.3271 -0.333499 -3.64944 
2 14.1658 -2.89802 -3.00795 
1 -1.83008 -14.1685 -1.41524 
1 -3.54047 -14.3821 0.583932 
1 -1.24722 -14.4407 1.13372 
1 -3.58339 -12.5814 -1.80996 
1 0.504892 -14.615 -0.642307 
1 2.57593 -14.4302 -2.2517 
1 3.62508 -14.241 -0.0594964 
2 1.55953 -14.0533 1.69132 
1 5.3325 -14.128 -1.79427 
1 5.25765 -12.373 -0.0618432 
2 7.07489 -12.2321 -1.69097 
1 7.07923 -12.4572 1.59949 
1 8.93779 -11.8798 -0.226773 
1 -10.6498 -10.5565 0.106208 
1 -10.7577 -9.06386 -1.70808 
1 -8.89381 -10.7642 -1.60785 
2 -8.81241 -10.6947 1.80962 
1 -8.75957 -8.7732 0.00692403 
2 -10.9869 -8.8486 1.87413 
1 -4.9962 -12.5696 0.114686 
2 -6.89775 -12.4308 -1.37526 
2 -6.97129 -12.5044 1.43514 
1 -7.07528 -10.5044 0.00416895 
2 -5.17882 -10.6705 -1.72818 
2 -5.35299 -10.6223 1.72049 
1 -7.05657 -8.84217 -1.82879 
1 -7.06786 -8.77811 1.7784 
1 -5.219 -8.77008 -0.0480108 
1 -1.70797 -12.3016 -0.120063 
1 -3.34798 -12.2569 1.72683 
1 -3.47803 -10.5816 -0.090084 
1 -1.85464 -10.632 -1.80355 
1 -1.74019 -10.5458 1.67348 
1 -3.54876 -8.84684 -1.83232 
1 -3.52401 -8.80897 1.60999 
1 -1.82163 -8.86148 -0.13319 
1 -0.128166 -8.95772 -1.82832 
1 0.00809087 -10.5697 -0.0904523 
1 -0.0359589 -8.82974 1.73108 
2 0.0978857 -12.4171 -1.78551 
1 3.44244 -12.3127 1.6869 
1 -0.0410949 -12.3474 1.61749 
1 3.60118 -12.3176 -1.92879 
2 1.88844 -12.4601 -0.183872 
1 3.60776 -10.5942 -0.194335 
1 1.80054 -10.6418 -1.93426 
1 1.63855 -10.6341 1.66449 
1 3.51637 -8.85262 -1.8578 
1 3.42093 -8.89519 1.70071 
1 1.74199 -8.89205 -0.0851558 
1 6.90554 -10.4866 -0.0848449 
1 5.35919 -10.6316 -2.03541 
1 5.23453 -10.709 1.6843 
1 7.25211 -8.91565 -1.85894 
2 7.10939 -8.83833 1.73775 
1 5.20412 -8.8657 -0.127695 
1 9.1449 -10.6255 -2.16102 
1 10.8359 -9.01669 -2.13002 
1 10.6503 -9.20634 1.59088 
2 8.99581 -9.09624 -0.201122 
1 8.76948 -10.738 1.9543 
1 -12.4665 -7.16564 -1.80301 
1 -12.5672 -5.40133 -0.00310195 
2 -10.7736 -7.23061 0.0511407 
1 -10.7355 -5.34797 -1.70593 
1 -10.8415 -5.41519 1.81644 
1 -8.95825 -7.08849 -1.76181 
1 -9.00521 -7.1709 1.74419 
1 -9.04918 -5.32628 0.0916394 
1 -7.14707 -7.08444 -0.0774484 
1 -7.15732 -5.32483 -1.66897 
1 -5.3792 -7.10357 -1.7557 
2 -7.17644 -5.42945 1.73552 
1 -5.30497 -7.06171 1.79007 
1 -5.32568 -5.35276 0.0253349 
1 -3.48262 -7.06119 -0.053738 
1 -1.75166 -7.07584 -1.8355 
1 -1.80913 -7.23577 1.80806 
1 -3.57488 -5.46941 -1.8243 
1 -3.57436 -5.35115 1.68151 
2 -1.75744 -5.34314 0.0175227 
1 -0.067007 -7.21133 0.042014 
1 -0.0323878 -5.36084 -1.91309 
1 0.0208139 -5.33788 1.75661 
1 3.49238 -7.0597 -0.0843816 
2 1.68028 -7.16719 -1.8283 
1 1.72454 -7.21873 1.74017 
2 3.63638 -5.29972 -1.79359 
1 3.46411 -5.33121 1.65023 
1 1.69077 -5.35929 -0.019356 
1 7.19854 -7.20217 -0.253474 
1 5.36042 -7.1759 -1.85393 
1 7.01519 -5.35206 -1.81383 
1 5.33201 -7.07386 1.67353 
2 7.21463 -5.41414 1.72732 
1 5.40695 -5.39622 -0.00737511 
1 10.6937 -7.2513 -0.132761 
1 10.6334 -5.39332 1.72569 
1 10.6185 -5.12094 -1.83054 
1 8.93955 -7.06538 -1.89249 
1 8.97862 -7.24348 1.59422 
1 8.93184 -5.33499 -0.0256562 
2 12.4705 -5.33062 -0.393548 
1 12.3385 -7.18559 -1.98293 
1 12.5361 -7.00165 1.50744 
1 -14.2396 -3.4472 0.0163774 
2 -14.3335 -1.50595 -1.43536 
1 -14.3617 -1.80501 1.87554 
1 -12.4974 -3.47633 -1.64004 
1 -12.4456 -1.73018 0.0104265 
1 -12.4694 -3.4904 1.81576 
1 -10.8283 -3.55556 0.0937119 
1 -10.7288 -1.69671 -1.56312 
1 -10.622 -1.70769 1.7396 
1 -8.92733 -3.69559 -1.74549 
2 -9.02536 -3.64022 1.85727 
1 -8.86189 -1.74307 0.038827 
2 -0.0725322 -3.75753 14.0207 
1 -7.20869 -1.61914 12.2821 
1 -10.6936 0.084028 0.154007 
1 -7.2188 -3.55141 -0.0127785 
1 -7.20032 -1.87403 -1.76044 
1 -7.15477 -1.83147 1.79819 
1 -5.32444 -3.51298 -1.67573 
2 -5.42753 -3.65499 1.84199 
2 -5.52301 -1.71672 0.0380835 
1 -3.53847 -3.42582 0.0359357 
1 -3.58853 -1.69341 -1.68944 
2 -1.76588 -3.46893 -1.87008 
2 -3.49113 -1.86013 1.90309 
1 -1.78468 -3.58573 1.76888 
1 -1.70274 -1.6475 0.0359857 
1 -0.0496472 -1.67119 1.90179 
1 -0.0361929 -1.65572 -1.85428 
1 -5.38779 -3.26825 12.5037 
1 -5.40748 0.123471 12.5654 
1 -0.0107495 -3.47897 0.0647063 
2 3.57045 -3.57899 -0.0149726 
2 1.5378 -3.52727 -1.79079 
1 3.5935 -1.72977 -1.85207 
1 1.78722 -3.63126 1.79481 
1 3.51153 -1.82707 1.87614 
1 1.82295 -1.7582 0.0280254 
2 1.66817 0.0236945 1.87196 
1 -0.0738274 -6.6583 14.2579 
2 3.56763 -0.0868392 -0.119048 
1 7.11713 -3.5507 -0.0224893 
1 6.97403 -1.70348 -1.76368 
1 7.18062 -1.74342 1.82269 
1 5.28978 -3.48495 -1.77371 
1 5.42618 -3.61519 1.81717 
2 5.46429 -1.88704 0.0943569 
2 1.63181 -7.04307 12.4004 
1 3.45723 -5.32195 12.4108 
2 12.536 -0.0650684 -1.69958 
1 10.6534 -3.5855 -0.023996 
1 10.6133 -1.89332 1.79891 
1 10.64 -1.66024 -1.67411 
1 8.92811 -3.4825 -1.78296 
1 8.89848 -3.65548 1.76665 
2 8.89806 -1.75306 0.0246955 
1 12.1613 -3.25679 -1.82058 
1 12.4991 -1.74174 0.147149 
2 12.5352 -3.67351 1.60219 
2 14.2 -3.46615 -0.383761 
1 14.7819 -1.28376 -1.31577 
1 14.4276 -1.82642 1.61989 
2 -2.91744 -14.1763 3.01239 
2 -3.25579 -12.5978 5.0728 
1 -0.333767 -14.2309 3.45698 
1 3.42534 -14.0781 3.18653 
1 -10.5787 -10.8684 3.53623 
1 -10.6782 -9.11556 5.39211 
2 -8.89707 -8.91904 3.51549 
2 -8.84131 -10.7707 5.18564 
2 -5.12722 -12.7553 3.35916 
1 -7.07706 -11.0326 3.53352 
1 -5.39149 -10.9177 5.37903 
1 -7.16009 -9.08496 5.4981 
2 -5.42617 -8.96445 3.55402 
1 -1.60271 -12.1266 3.36967 
1 -1.6223 -10.6125 5.34085 
1 -3.60201 -10.6841 3.5257 
2 -3.49817 -9.01172 5.28468 
1 -1.76704 -8.98661 3.53536 
1 -0.0851999 -8.90614 5.41462 
2 -0.0568064 -12.4563 5.32291 
1 3.29074 -12.5886 5.21939 
1 1.64355 -12.4378 3.53936 
1 0.0969735 -10.6154 3.37307 
1 1.5724 -10.619 5.31586 
2 3.46972 -10.8021 3.45794 
1 3.43424 -9.19026 5.35136 
1 1.77196 -8.95372 3.51459 
1 5.33095 -12.6117 3.31076 
1 7.0897 -10.8689 3.65022 
1 5.30585 -10.7766 5.39575 
2 7.01209 -8.78306 5.40619 
2 5.1814 -8.8178 3.60707 
1 9.13024 -10.312 5.46163 
2 8.99047 -8.91056 3.55433 
2 10.7926 -8.29625 5.43289 
1 -12.4673 -5.1212 3.60719 
1 -10.7583 -7.14913 3.70376 
1 -10.7817 -5.40241 5.35479 
1 -8.85579 -7.26555 5.46797 
1 -9.01607 -5.53968 3.569 
1 -7.12375 -7.14691 3.63739 
1 -7.28345 -5.4333 5.33961 
1 -5.42529 -7.2055 5.53662 
2 -5.22995 -5.51266 3.64893 
1 -1.91788 -7.20862 5.33985 
1 -3.48153 -7.27215 3.44693 
1 -3.66641 -5.39362 5.51681 
2 -1.95727 -5.37906 3.48898 
1 -0.0127981 -7.18358 3.6122 
2 -0.0614589 -5.47097 5.35652 
1 1.81291 -7.34715 5.27853 
1 3.47422 -7.15209 3.54568 
1 3.39852 -5.33422 5.27912 
1 1.74537 -5.43247 3.49946 
1 7.22497 -7.1295 3.47543 
1 5.14182 -7.12668 5.36188 
2 7.04459 -5.4305 5.18614 
2 5.2403 -5.41251 3.47813 
1 10.7918 -7.33288 3.23129 
1 10.77 -5.52329 5.2428 
1 8.83697 -7.08395 5.49553 
1 9.06991 -5.52106 3.45992 
2 12.3537 -5.39426 3.42491 
1 -14.0706 -3.53147 3.7046 
1 -12.4439 -3.41554 5.51013 
1 -14.2864 -0.0660366 3.55906 
1 1.96846 -5.32989 14.2627 
1 -12.5664 -1.72574 3.7798 
1 -10.6184 -1.81971 5.40426 
1 -10.7717 -3.56259 3.57352 
1 -8.95369 -3.65337 5.35461 
2 -8.9728 -1.75911 3.64329 
1 -7.07717 -1.75257 5.34758 
2 -7.08745 -3.55407 3.65854 
1 -5.38593 -3.56779 5.48724 
1 -5.40355 -1.76638 3.59043 
2 -3.59568 -1.73442 5.36652 
2 -1.75413 -3.57356 5.30213 
1 -3.63914 -3.55875 3.63927 
1 -1.72159 -1.7788 3.64162 
1 -0.0631208 -1.72432 5.42133 
1 -0.0672674 -3.58267 3.39733 
1 1.63402 -3.4989 5.27321 
1 3.51244 -1.91304 5.26354 
1 3.568 -3.64601 3.53122 
1 1.75584 -1.82817 3.54615 
1 3.5702 0.0193793 3.56467 
1 7.13377 -1.71923 5.35913 
1 7.15301 -3.5081 3.56847 
1 5.33168 -3.55194 5.21133 
1 5.35737 -1.75262 3.53603 
1 5.38042 0.0193462 5.30873 
2 10.6056 -1.80529 5.32157 
1 10.5984 -3.60124 3.48986 
2 8.80249 -3.67558 5.32872 
1 8.79678 -1.82183 3.5003 
2 12.3747 -1.89721 3.56659 
1 12.4155 -3.74888 5.45524 
1 14.2524 -3.56516 3.32212 
1 14.3354 -1.93285 5.22538 
1 1.6131 -12.363 7.13122 
1 -9.03641 -9.10342 7.08861 
1 -5.09526 -9.08126 10.6082 
1 -5.08499 -10.7461 8.77663 
1 -7.17766 -10.9511 7.13927 
2 -6.95486 -9.0849 8.82029 
1 -5.27645 -8.96191 7.0417 
1 -1.7951 -12.3171 6.96212 
2 -1.79423 -8.94874 10.7511 
1 -1.94652 -10.7 8.85204 
1 -3.5474 -10.8158 7.00146 
1 -3.4554 -8.90647 8.88439 
1 -1.77206 -8.91247 7.13217 
1 -0.162265 -8.9798 9.00036 
1 0.045227 -10.6693 7.21448 
1 1.67455 -10.7644 9.03346 
1 3.52632 -10.8222 7.0423 
1 3.40513 -9.0122 8.85617 
1 1.71011 -8.88823 7.08227 
1 1.64538 -8.89445 10.8274 
1 7.21642 -10.6605 6.95631 
1 5.26766 -8.94671 10.5089 
1 5.34051 -10.6643 8.5793 
1 7.00517 -8.93163 8.81877 
1 5.21541 -8.85121 7.06667 
1 8.97271 -8.74101 7.26465 
1 -10.3894 -5.47019 9.20229 
2 -10.533 -6.95405 7.19674 
1 -8.76196 -7.32647 9.04332 
1 -8.76384 -5.37303 7.27814 
1 -8.59584 -5.49369 10.8805 
1 -5.45769 -5.4314 10.8567 
1 -6.93768 -7.29333 10.8043 
1 -6.97349 -5.54745 9.1066 
1 -5.31076 -7.26026 9.01571 
1 -7.2232 -7.23069 7.16661 
1 -5.49676 -5.47148 7.18918 
2 -3.59263 -7.08338 10.9101 
1 -1.91005 -5.29311 10.7191 
1 -1.90508 -7.17238 8.90935 
2 -3.60948 -5.40794 8.93783 
1 -3.64109 -7.17469 7.14879 
1 -1.77423 -5.32909 7.0734 
2 -0.0986295 -5.40878 8.98685 
1 -0.0715938 -7.2397 7.19694 
1 -0.187377 -7.1145 10.6754 
1 3.5359 -7.24664 10.7817 
1 1.80932 -5.39654 10.5564 
1 1.77716 -7.37203 8.89418 
1 3.5036 -5.40804 8.89263 
1 3.46632 -7.1395 7.04586 
2 1.71355 -5.51864 7.06973 
1 6.86519 -7.11124 10.5873 
1 5.24006 -5.31821 10.6349 
1 5.11864 -7.24741 8.93584 
1 7.00973 -5.39699 8.97622 
1 7.06242 -7.17704 7.23823 
2 5.3024 -5.5371 7.09425 
1 8.6534 -5.4734 10.7689 
1 10.6067 -4.99022 9.15124 
1 10.7187 -6.68173 7.37244 
1 8.8563 -7.05227 9.0131 
1 8.6744 -5.41379 7.10476 
2 -11.9335 -1.70406 7.43511 
1 -9.11365 -1.60433 10.4947 
1 -11.0374 -3.11615 9.50696 
2 -10.59 -3.84013 7.14523 
1 -8.65056 -3.62617 9.1235 
2 -9.00785 -1.75906 7.38788 
1 -11.1067 -0.601297 9.49347 
1 -7.0878 -3.53386 10.8125 
1 -5.34073 -1.6214 10.6669 
1 -7.11429 -1.64497 8.90586 
2 -5.39352 -3.59279 8.84468 
1 -7.148 -3.56092 7.14795 
1 -5.42364 -1.75077 7.13457 
1 -3.71829 -3.60989 10.7542 
1 -1.74957 -1.67301 10.7172 
1 -3.56024 -1.76631 8.93977 
2 -1.80534 -3.48017 9.08124 
1 -3.59342 -3.56029 7.1268 
1 -1.81374 -1.66773 7.20818 
1 -1.81388 -7.01886 12.5613 
1 0.0151799 -3.50132 10.6182 
2 0.0259453 -3.46909 7.20417 
1 -0.00459388 -1.70989 8.95491 
1 1.73179 -1.69426 6.97689 
2 3.51429 -3.64432 7.0903 
1 1.66869 -1.80672 10.6277 
1 1.89457 -3.41794 8.88731 
1 3.61453 -1.75538 8.78428 
1 3.5113 -3.51567 10.6097 
1 3.39176 -0.0871282 10.7063 
1 5.30209 -3.5763 8.89895 
1 5.28082 -1.7036 10.6371 
1 6.96512 -3.55264 7.10937 
1 5.32816 -1.7667 7.02158 
1 7.14111 -1.77474 8.8894 
1 6.96356 -3.66636 10.6751 
1 -3.86469 -5.16935 12.7104 
1 5.33535 -0.090161 8.94397 
2 8.952 -0.14149 9.02953 
1 8.73888 -3.64823 9.01887 
1 8.72511 -1.93913 10.8772 
1 10.6727 -3.76833 7.15704 
2 10.7385 -2.02732 8.90583 
1 8.98541 -1.96893 7.17229 
1 12.37 -0.191668 8.94843 
2 12.532 -1.97519 7.05955 
1 -0.158014 -8.8399 12.559 
1 0.0346244 -5.34633 12.1351 
1 -7.27659 0.0206312 -7.08125 
1 -1.84904 0.123288 -9.01431 
1 -0.138334 0.10608 -7.18673 
2 10.5888 0.043825 -7.08712 
1 -5.3645 -0.0217066 -5.26521 
1 -3.67297 0.12334 -3.5811 
1 -1.75667 0.0116301 -5.36632 
1 8.80416 0.0469681 -5.2687 
1 -14.3018 0.182398 0.300093 
1 8.87812 -0.0290219 -1.88852 
1 -10.6471 -0.0988097 3.71021 
1 -7.20247 -0.134438 3.62024 
1 -3.68429 -0.0387949 3.58851 
1 -1.7516 0.0751561 5.40247 
2 7.13228 0.065631 3.59846 
1 8.92794 0.0940144 5.52334 
2 14.1691 0.0318778 3.42435 
2 -3.64854 0.0499964 7.18067 
1 -3.55592 0.0730052 10.8227 
1 3.44415 -0.0674561 7.04107 
1 1.71284 0.0616835 8.8198 
1 7.10609 -0.015633 10.9284 
1 -7.35234 1.72535 -12.1957 
1 -5.65902 3.63544 -12.6125 
2 -1.81603 1.85551 -14.4192 
2 -3.73562 2.12288 -12.7222 
1 -1.7051 3.70612 -12.518 
1 0.0669865 3.6566 -14.3579 
1 -3.84788 0.107249 -14.187 
2 -0.136182 1.85767 -12.4369 
1 3.39014 3.52916 -14.3017 
1 3.51721 1.79669 -12.5868 
2 1.77665 3.70353 -12.6263 
1 1.69368 1.83217 -14.5268 
1 5.16462 1.77147 -14.308 
1 7.25037 1.75705 -12.5759 
1 5.36521 3.5939 -12.6148 
1 -1.71372 6.93442 -12.6049 
1 -3.54828 5.13533 -12.5057 
1 -0.00968533 5.37577 -12.446 
1 1.63295 7.11634 -12.3823 
1 3.61424 5.42124 -12.3791 
1 -12.2821 1.76732 -7.155 
1 -11.1251 2.8193 -9.12332 
1 -9.06783 1.71355 -10.4725 
2 -8.98077 3.76142 -8.92641 
2 -9.16938 1.99545 -7.30762 
1 -10.7552 3.95301 -6.94711 
1 -11.3366 0.466294 -9.2148 
1 -7.38307 3.59534 -10.7543 
2 -5.35306 1.8284 -10.7115 
2 -7.24326 1.81525 -8.84429 
1 -5.42262 3.58691 -8.9242 
1 -7.07903 3.53682 -7.01737 
2 -5.43969 1.81083 -6.92853 
1 1.75662 7.08704 12.7375 
1 -7.21337 0.0253288 -10.5284 
1 -3.65574 3.67384 -10.6186 
1 -1.97297 1.81116 -10.7483 
1 -3.66023 1.70889 -8.89598 
2 -1.88637 3.49921 -8.92083 
2 -3.60112 3.61997 -6.99486 
1 -1.81557 1.7865 -7.08784 
1 -0.0698429 1.83165 -9.00516 
1 -0.0474872 3.72158 -10.6883 
1 -0.146245 3.62089 -7.12351 
1 3.55368 5.3795 12.6313 
1 -3.64527 0.0219656 -7.07271 
1 1.86064 5.12646 14.2445 
1 3.45869 3.55476 -10.8537 
1 1.7721 1.73092 -10.6906 
1 3.45039 1.82724 -8.94115 
2 1.74524 3.60189 -8.93495 
1 3.55365 3.62114 -7.13825 
2 1.68356 1.72681 -7.14214 
1 3.50875 0.0768804 -10.8374 
2 6.93605 3.57596 -10.7754 
1 5.23268 1.77674 -10.9107 
1 7.16611 1.74777 -9.05873 
1 5.14176 3.54317 -8.94435 
1 7.08072 3.48979 -7.19652 
1 5.22392 1.8876 -7.19708 
2 6.89807 -0.032498 -7.06257 
2 5.23184 0.0057738 -8.99452 
2 7.40884 -0.0328258 -10.8515 
1 8.96881 2.03638 -10.8193 
2 10.6164 1.70912 -8.93876 
1 8.86552 3.4813 -8.98917 
1 8.92322 1.71209 -7.17359 
1 10.6937 3.48983 -7.06968 
2 12.3623 1.71456 -7.04911 
1 -1.6211 7.2276 12.4699 
1 -10.7337 5.51034 -8.74986 
1 -10.6255 7.17291 -6.92504 
1 -8.9161 7.18518 -8.87276 
1 -8.82578 5.35954 -7.01469 
1 -9.01287 5.57464 -10.6077 
2 -5.55929 5.38942 -10.7885 
1 -7.15705 7.25701 -10.7104 
1 -7.11114 5.3347 -8.77058 
1 -5.50625 7.134 -8.92733 
2 -7.10546 7.18366 -7.01238 
1 -5.37529 5.38101 -7.09277 
2 -3.77645 7.17609 -10.8758 
1 -1.93205 5.41414 -10.6916 
1 -1.88764 7.11433 -8.86427 
2 -3.65815 5.37674 -8.85706 
1 -3.70552 7.15755 -7.13601 
1 -1.87543 5.40976 -7.0691 
2 -0.234396 5.43463 -8.89032 
1 -0.182889 7.18252 -7.0152 
1 -0.0726841 7.18161 -10.7368 
1 3.4357 7.35323 -10.5545 
1 1.63894 5.46602 -10.6842 
2 1.63748 7.20644 -8.78449 
1 3.57457 5.32945 -9.05079 
1 3.5792 7.12742 -7.29816 
1 1.82748 5.47425 -7.13696 
1 7.13391 7.13121 -10.5115 
1 5.29769 5.47664 -10.7367 
1 7.0752 5.2807 -8.96722 
1 5.34899 7.10527 -8.79079 
1 7.2589 7.08851 -7.0749 
1 5.43346 5.19523 -7.20956 
1 8.71836 5.20789 -10.6162 
1 10.6181 5.08973 -8.88969 
1 8.94991 6.94142 -8.86841 
1 8.82498 5.29418 -7.02948 
2 10.5866 7.01621 -7.06958 
1 -8.81058 8.91851 -7.05745 
1 -5.33783 8.97514 -10.4568 
1 -5.42047 10.7324 -8.77347 
1 -7.09985 8.9436 -8.85854 
1 -5.40694 8.96959 -7.17966 
1 -7.23112 10.5987 -7.04948 
2 -1.84825 8.66358 -10.7322 
2 -1.97626 10.5329 -8.88647 
1 -3.71361 10.6204 -7.14227 
1 -3.74597 8.85862 -8.80032 
1 -1.9612 8.81233 -7.16873 
1 -0.177847 10.5157 -7.11546 
1 -0.153528 8.92214 -8.86409 
1 -0.217945 12.3443 -8.78887 
1 -1.85782 12.3251 -7.04217 
1 1.71406 9.0247 -10.684 
1 1.50145 10.6886 -8.9614 
1 3.50991 10.9191 -7.28223 
1 3.48931 9.09317 -8.8299 
1 1.71542 9.06631 -7.09212 
2 1.63666 12.5032 -7.12197 
1 5.18712 8.86417 -10.3074 
1 5.37646 10.9365 -8.53521 
1 7.23474 10.6373 -6.89047 
1 7.29983 8.99919 -8.85325 
1 5.49443 8.81539 -7.16964 
1 9.02613 8.78188 -6.97087 
2 -14.3 3.55131 -3.29745 
1 -14.1212 0.0907419 -3.60317 
1 -12.3985 0.0991982 -5.31696 
2 -12.6267 3.54407 -5.16991 
1 -12.5514 1.87984 -3.38834 
2 -10.6792 1.87764 -5.19073 
1 -10.8178 3.65015 -3.33694 
1 -8.92897 3.64129 -5.31294 
2 -9.13705 1.71176 -3.38429 
2 -9.00921 -0.0123192 -5.29378 
1 -7.27074 1.71066 -5.29117 
2 -7.18553 3.53323 -3.47194 
1 -5.51172 3.54639 -5.18428 
1 -5.29468 1.80818 -3.46568 
2 -7.06986 0.0181138 -3.34754 
1 -3.52563 5.32968 12.5911 
1 -3.48114 1.81983 -5.30209 
1 -1.72939 3.66407 -5.34164 
1 -3.60815 3.59617 -3.54796 
1 -1.84497 1.81346 -3.57114 
1 -0.0879036 1.89852 -5.40838 
1 0.0656548 5.46678 12.4435 
1 6.9924 1.80589 12.3971 
1 -0.0926868 3.62757 -3.60206 
1 3.59967 1.62932 -5.42186 
2 1.72221 3.68002 -5.33023 
1 3.63754 3.61698 -3.67893 
2 1.77879 1.7682 -3.66745 
1 7.0229 1.79074 -5.29236 
1 7.05054 3.62177 -3.56789 
1 5.24941 3.5723 -5.41219 
1 5.27699 1.76633 -3.58085 
1 5.36109 -0.0848273 -5.30439 
1 10.6402 1.74884 -5.26133 
1 10.6914 3.52192 -3.65396 
2 8.81347 3.38345 -5.36391 
1 8.78821 1.80134 -3.54423 
1 12.4854 1.75786 -3.60957 
1 5.16575 3.48207 12.7185 
1 12.5332 3.51195 -5.30801 
1 14.3129 3.42397 -3.41449 
1 -12.6088 5.37893 -3.3918 
1 -10.5667 7.2177 -3.36722 
1 -10.7856 5.40006 -5.18237 
2 -8.89832 7.17411 -5.18775 
1 -8.90921 5.35269 -3.47736 
1 -7.08772 7.22409 -3.41364 
1 -7.12669 5.39781 -5.28611 
1 -5.31871 7.17013 -5.13817 
1 -5.44113 5.34165 -3.45067 
1 -1.95292 7.18358 -5.31292 
1 -3.62797 7.17168 -3.49393 
1 -3.64686 5.40255 -5.27865 
1 -1.85064 5.40484 -3.62748 
2 -0.106394 7.20915 -3.5695 
1 0.0116104 5.35155 -5.39879 
1 1.66138 7.14188 -5.40064 
2 3.42264 7.16602 -3.61165 
1 3.57287 5.36597 -5.35183 
1 1.69178 5.3665 -3.59374 
1 7.13254 7.08789 -3.60053 
1 7.01561 5.25109 -5.32028 
2 5.34964 7.08951 -5.55938 
1 5.3016 5.41297 -3.55982 
1 10.7684 6.97304 -3.48026 
1 10.7148 5.35532 -5.307 
1 8.97169 6.87932 -5.24941 
1 8.88702 5.27885 -3.54922 
2 12.4347 5.1503 -3.48583 
1 -10.5132 8.89947 -5.21233 
1 -8.75487 10.7008 -5.21507 
1 -8.76325 8.94984 -3.29801 
1 -10.5003 10.627 -3.37681 
1 -7.05596 10.6691 -3.32782 
1 -5.47367 10.7895 -5.2606 
1 -7.07805 8.95492 -5.22145 
1 -5.33109 9.05097 -3.41504 
1 -1.73161 10.6228 -5.25616 
1 -3.57121 10.7158 -3.46942 
2 -3.64382 8.98909 -5.34373 
1 -1.80536 8.93964 -3.4454 
1 0.0594109 10.5864 -3.52981 
1 -0.0297401 8.9562 -5.3235 
1 -1.78716 12.3401 -3.59469 
1 -3.56844 12.2852 -5.39732 
2 1.77073 10.83 -5.25777 
1 3.55255 10.8316 -3.60845 
1 3.46954 8.8295 -5.48028 
1 1.82485 8.9924 -3.5921 
1 1.86137 12.4938 -3.48216 
1 3.74435 12.6794 -5.37087 
1 7.18512 10.8724 -3.62169 
2 5.23898 10.7671 -5.3691 
1 7.2152 8.74827 -5.291 
2 5.33071 8.89127 -3.66701 
1 10.7851 8.62164 -5.26655 
1 9.14429 10.4776 -5.14863 
1 8.99246 8.79779 -3.64937 
1 10.6132 8.8658 -1.8954 
1 -5.29282 12.5501 -3.56841 
1 -0.0206605 12.3632 -5.31054 
1 -3.44019 14.1996 -3.91163 
1 -0.165346 14.2535 -3.79099 
2 1.7401 14.0608 -5.38669 
1 3.38955 14.3784 -3.56301 
1 5.34515 12.5672 -3.5583 
1 -14.2886 3.53502 -0.075675 
1 -14.2641 1.70335 -1.66558 
2 -12.5811 3.67672 1.97881 
1 -14.2783 2.02123 2.18366 
1 -12.5509 1.90411 0.269026 
2 -0.17227 3.71572 14.2854 
1 -12.5504 3.72339 -1.61651 
2 -12.4352 -0.0662122 1.97216 
2 -10.7441 3.64933 0.0926523 
1 -10.8754 1.85416 -1.57013 
1 -10.6424 1.71551 2.03324 
1 -8.91187 3.57611 -1.72071 
1 -9.07676 3.66288 1.89691 
1 -8.90672 1.94169 -0.00894366 
1 -9.12666 0.0386584 -1.63553 
2 -5.65533 0.0422227 1.74269 
1 -7.2609 3.66308 0.0141805 
1 -7.06477 1.78491 -1.61522 
1 -7.14452 2.04521 1.73812 
1 -5.4839 3.6196 -1.66189 
1 -5.30297 3.67241 1.72337 
1 -5.37223 1.81203 0.0536941 
1 -5.20604 0.103447 -1.65718 
1 -7.24964 0.044266 -0.133577 
2 -3.53042 3.52362 0.0844352 
1 -3.52434 1.87945 -1.77028 
2 -1.76938 3.51729 -1.69263 
1 -3.59761 1.86574 1.84488 
1 -1.74092 3.71567 1.72257 
1 -1.67385 1.69377 0.165353 
1 -0.0387901 1.7068 -1.74662 
1 -3.57032 0.0489587 0.10958 
1 -1.81281 0.0566181 -1.84008 
1 -0.0913135 1.86679 1.95762 
1 0.100504 3.61731 0.0934876 
2 3.52773 3.65039 -0.0284067 
1 3.64106 1.89131 -1.87511 
2 1.68819 3.5501 -1.90327 
1 3.60123 1.90091 1.79054 
1 1.69747 3.68104 1.75819 
2 1.84051 1.82935 0.0381373 
1 7.0515 -0.0271861 0.0638677 
1 7.1389 3.55317 0.0304169 
1 7.08819 1.90191 -1.86376 
1 7.15603 1.82802 1.74064 
1 5.2945 3.68033 -1.81943 
1 5.4729 3.46973 1.89261 
2 5.31676 1.72747 0.0440601 
1 12.4397 0.0648147 1.83814 
2 8.97882 0.11551 1.855 
1 10.6713 3.52196 0.00683899 
1 10.6935 1.88812 1.75137 
2 10.6705 1.85505 -1.80216 
1 8.82777 3.62227 -1.73242 
1 8.85521 3.51794 1.7602 
1 8.76708 1.79249 -0.0815288 
1 1.59845 -0.03293 12.4256 
1 12.4415 1.81363 0.11012 
1 10.7305 0.0224047 0.062225 
1 12.4893 3.42867 -1.76197 
1 12.604 3.68147 1.75213 
1 14.2633 0.285969 0.322664 
1 14.274 3.41706 -0.0633127 
2 14.3399 1.62616 -1.77525 
1 14.3413 2.03187 1.95322 
1 -12.51 7.05029 -1.64167 
1 -12.7455 5.51267 0.133958 
1 -12.4192 7.34554 1.70158 
1 -10.7333 7.04188 -0.0364 
1 -10.6164 5.43137 -1.71602 
1 -10.7893 5.39646 1.85945 
1 -8.71202 7.17843 -1.50953 
2 -8.86749 7.21439 1.70428 
1 -8.95513 5.44265 0.109039 
1 -6.98877 7.15835 0.0927698 
1 -7.10051 5.46261 -1.59687 
2 -5.30881 7.21175 -1.64042 
1 -7.21972 5.32089 1.70284 
1 -5.26178 7.08971 1.8054 
1 -5.22672 5.38753 0.0901279 
1 -3.54647 7.20429 0.0516412 
1 -1.82536 7.19723 -1.82505 
1 -1.77989 7.21044 1.76937 
1 -3.57076 5.49118 -1.6499 
1 -3.64288 5.4212 1.82882 
2 -1.63993 5.47719 -0.0248674 
1 -0.00503799 7.3338 0.0549201 
1 0.0848839 5.34631 -1.88272 
1 -0.0227935 5.48122 1.83175 
1 3.57865 7.13007 0.0311163 
1 1.75231 7.17422 -1.70967 
2 1.80955 7.13383 1.78684 
1 3.505 5.30973 -1.9018 
2 3.60489 5.32911 1.89295 
1 1.55816 5.40145 0.0370073 
1 7.00967 7.01629 0.124726 
1 7.12096 5.27926 -1.77285 
2 5.35382 7.00548 -1.7818 
1 7.04303 5.27869 1.8559 
1 5.39813 7.17965 1.89962 
1 5.38882 5.31422 0.07437 
1 10.3526 7.01882 -0.243831 
1 10.4555 5.1402 1.74417 
1 10.5609 5.15914 -1.80363 
1 8.81777 7.03055 -2.0089 
2 8.89905 7.12692 1.7168 
1 8.81288 5.21785 0.0585616 
2 11.7776 7.16105 1.65057 
1 12.3221 7.23657 -1.68554 
1 12.2735 5.31822 -0.0908456 
2 -8.72958 10.7301 -1.59988 
1 -8.92439 10.8092 1.78108 
2 -10.627 8.94876 -1.70154 
1 -10.6803 9.1013 1.69703 
1 -8.89785 9.01186 0.0581673 
1 -6.94711 10.8062 0.105588 
1 -5.16913 10.8475 1.75624 
1 -5.23136 10.7988 -1.69392 
1 -7.07162 9.00259 -1.54601 
1 -7.04319 9.09163 1.68091 
1 -5.19042 9.00565 0.140996 
2 -5.1832 12.686 0.0494694 
1 -3.48355 10.7385 -0.0053807 
2 -1.70551 10.9215 1.79603 
1 -1.6848 10.7643 -1.81513 
1 -3.45132 8.98929 -1.67824 
2 -3.53369 9.03887 1.89005 
1 -1.79047 8.99941 0.137087 
1 -3.37254 12.4682 -1.84837 
1 0.0360331 10.7543 0.142009 
1 -1.81791 12.4982 -0.166944 
1 -0.0116176 9.04795 1.78732 
2 -0.0106836 8.99011 -1.65784 
1 -0.0863091 12.5165 -1.9098 
1 3.52608 10.6244 0.209084 
1 1.82104 10.6755 1.89842 
1 1.89966 10.6808 -1.70085 
1 3.50392 8.97515 -1.72162 
1 3.63126 8.93671 1.89705 
1 1.91024 8.97159 0.090822 
2 1.73108 12.4223 -0.0708919 
1 0.288432 12.5803 1.92632 
1 7.16887 10.6932 -0.135665 
1 5.35561 10.8607 1.79212 
2 5.32235 10.8412 -1.76207 
1 7.18498 8.86938 -1.95892 
1 7.06624 8.98815 1.7293 
2 5.39062 9.00518 0.0426762 
2 7.2567 12.2859 1.66286 
2 10.8828 9.22738 0.593057 
2 8.98336 10.5203 1.52493 
1 8.98758 10.7547 -1.61939 
1 8.63896 8.72117 -0.191051 
1 -6.98191 12.638 -1.63951 
1 -7.05053 12.5566 1.75136 
2 -4.93893 14.308 -1.83993 
2 -3.50675 12.6743 2.01374 