ITEM: TIMESTEP
0
ITEM: NUMBER OF ATOMS
1289
ITEM: BOX BOUNDS pp pp pp
-100 100
-100 100
-100 100
ITEM: ATOMS type x y z 
1 -1.767 -7.068 -12.369 
1 -3.534 -5.301 -12.369 
1 1.767 -7.068 -12.369 
1 3.534 -5.301 -12.369 
1 0 -5.301 -12.369 
1 -7.068 -1.767 -12.369 
2 -5.301 -3.534 -12.369 
2 -3.534 -3.534 -14.136 
1 -1.767 -1.767 -14.136 
2 -3.534 -1.767 -12.369 
1 -1.767 -3.534 -12.369 
1 3.534 -3.534 -14.136 
1 0 -3.534 -14.136 
2 1.767 -1.767 -14.136 
1 1.767 -3.534 -12.369 
1 3.534 -1.767 -12.369 
1 0 -1.767 -12.369 
2 7.068 -1.767 -12.369 
2 5.301 -3.534 -12.369 
1 -8.835 -8.835 -7.068 
2 -5.301 -10.602 -8.835 
1 -5.301 -8.835 -10.602 
1 -7.068 -10.602 -7.068 
1 -7.068 -8.835 -8.835 
1 -5.301 -8.835 -7.068 
1 -1.767 -12.369 -7.068 
1 -1.767 -10.602 -8.835 
1 -1.767 -8.835 -10.602 
1 -3.534 -10.602 -7.068 
2 -3.534 -8.835 -8.835 
1 -1.767 -8.835 -7.068 
1 0 -10.602 -10.602 
1 1.767 -12.369 -7.068 
2 1.767 -10.602 -8.835 
1 1.767 -8.835 -10.602 
1 3.534 -10.602 -7.068 
2 3.534 -8.835 -8.835 
2 0 -10.602 -7.068 
1 0 -8.835 -8.835 
1 1.767 -8.835 -7.068 
1 5.301 -10.602 -8.835 
1 5.301 -8.835 -10.602 
1 7.068 -10.602 -7.068 
1 7.068 -8.835 -8.835 
1 5.301 -8.835 -7.068 
1 8.835 -8.835 -7.068 
1 -10.602 -5.301 -8.835 
1 -8.835 -5.301 -10.602 
2 -10.602 -7.068 -7.068 
1 -8.835 -7.068 -8.835 
2 -8.835 -5.301 -7.068 
1 -7.068 -7.068 -10.602 
1 -5.301 -5.301 -10.602 
1 -7.068 -5.301 -8.835 
1 -5.301 -7.068 -8.835 
2 -7.068 -7.068 -7.068 
1 -5.301 -5.301 -7.068 
2 -3.534 -7.068 -10.602 
1 -1.767 -5.301 -10.602 
1 -1.767 -7.068 -8.835 
1 -3.534 -5.301 -8.835 
1 -3.534 -7.068 -7.068 
2 -1.767 -5.301 -7.068 
2 3.534 -7.068 -10.602 
1 0 -7.068 -10.602 
1 1.767 -5.301 -10.602 
1 1.767 -7.068 -8.835 
1 3.534 -5.301 -8.835 
1 3.534 -7.068 -7.068 
2 0 -5.301 -8.835 
2 0 -7.068 -7.068 
2 1.767 -5.301 -7.068 
1 7.068 -7.068 -10.602 
1 5.301 -5.301 -10.602 
1 5.301 -7.068 -8.835 
1 7.068 -5.301 -8.835 
1 7.068 -7.068 -7.068 
1 5.301 -5.301 -7.068 
1 8.835 -5.301 -10.602 
1 10.602 -5.301 -8.835 
1 10.602 -7.068 -7.068 
2 8.835 -7.068 -8.835 
1 8.835 -5.301 -7.068 
1 -12.369 -1.767 -7.068 
1 -10.602 -1.767 -8.835 
1 -8.835 -1.767 -10.602 
1 -10.602 -3.534 -7.068 
1 -8.835 -3.534 -8.835 
1 -8.835 -1.767 -7.068 
1 -7.068 -3.534 -10.602 
1 -5.301 -1.767 -10.602 
1 -7.068 -1.767 -8.835 
1 -5.301 -3.534 -8.835 
1 -7.068 -3.534 -7.068 
1 -5.301 -1.767 -7.068 
1 -3.534 -3.534 -10.602 
1 -1.767 -1.767 -10.602 
1 -3.534 -1.767 -8.835 
2 -1.767 -3.534 -8.835 
1 -3.534 -3.534 -7.068 
1 -1.767 -1.767 -7.068 
1 3.534 -3.534 -10.602 
1 0 -3.534 -10.602 
1 1.767 -1.767 -10.602 
1 1.767 -3.534 -8.835 
2 3.534 -1.767 -8.835 
1 0 -1.767 -8.835 
1 3.534 -3.534 -7.068 
1 0 -3.534 -7.068 
1 1.767 -1.767 -7.068 
1 7.068 -3.534 -10.602 
1 5.301 -1.767 -10.602 
1 7.068 -1.767 -8.835 
1 5.301 -3.534 -8.835 
1 7.068 -3.534 -7.068 
1 5.301 -1.767 -7.068 
1 12.369 -1.767 -7.068 
1 8.835 -1.767 -10.602 
1 10.602 -1.767 -8.835 
1 10.602 -3.534 -7.068 
1 8.835 -3.534 -8.835 
2 8.835 -1.767 -7.068 
1 -3.534 -14.136 -3.534 
1 3.534 -14.136 -3.534 
2 0 -14.136 -3.534 
1 -10.602 -8.835 -5.301 
1 -8.835 -10.602 -5.301 
2 -8.835 -8.835 -3.534 
1 -5.301 -12.369 -3.534 
1 -7.068 -10.602 -3.534 
1 -5.301 -10.602 -5.301 
1 -7.068 -8.835 -5.301 
1 -5.301 -8.835 -3.534 
1 -3.534 -12.369 -5.301 
1 -1.767 -12.369 -3.534 
2 -1.767 -10.602 -5.301 
1 -3.534 -10.602 -3.534 
1 -3.534 -8.835 -5.301 
2 -1.767 -8.835 -3.534 
1 3.534 -12.369 -5.301 
1 0 -12.369 -5.301 
2 1.767 -12.369 -3.534 
1 1.767 -10.602 -5.301 
1 3.534 -10.602 -3.534 
2 0 -10.602 -3.534 
1 3.534 -8.835 -5.301 
1 0 -8.835 -5.301 
1 1.767 -8.835 -3.534 
1 5.301 -12.369 -3.534 
2 7.068 -10.602 -3.534 
1 5.301 -10.602 -5.301 
1 7.068 -8.835 -5.301 
2 5.301 -8.835 -3.534 
1 8.835 -10.602 -5.301 
1 10.602 -8.835 -5.301 
2 8.835 -8.835 -3.534 
1 -12.369 -5.301 -3.534 
1 -10.602 -7.068 -3.534 
1 -10.602 -5.301 -5.301 
2 -8.835 -7.068 -5.301 
1 -8.835 -5.301 -3.534 
1 -7.068 -7.068 -3.534 
1 -7.068 -5.301 -5.301 
1 -5.301 -7.068 -5.301 
1 -5.301 -5.301 -3.534 
1 -1.767 -7.068 -5.301 
1 -3.534 -7.068 -3.534 
1 -3.534 -5.301 -5.301 
1 -1.767 -5.301 -3.534 
2 1.767 -7.068 -5.301 
1 3.534 -7.068 -3.534 
1 3.534 -5.301 -5.301 
1 0 -7.068 -3.534 
2 0 -5.301 -5.301 
1 1.767 -5.301 -3.534 
1 7.068 -7.068 -3.534 
1 5.301 -7.068 -5.301 
1 7.068 -5.301 -5.301 
1 5.301 -5.301 -3.534 
1 12.369 -5.301 -3.534 
1 10.602 -7.068 -3.534 
1 10.602 -5.301 -5.301 
2 8.835 -7.068 -5.301 
2 8.835 -5.301 -3.534 
1 -14.136 -3.534 -3.534 
1 -12.369 -3.534 -5.301 
2 -12.369 -1.767 -3.534 
1 -10.602 -1.767 -5.301 
2 -10.602 -3.534 -3.534 
1 -8.835 -3.534 -5.301 
2 -8.835 -1.767 -3.534 
2 -7.068 -1.767 -5.301 
1 -7.068 -3.534 -3.534 
1 -5.301 -3.534 -5.301 
1 -5.301 -1.767 -3.534 
1 -3.534 -1.767 -5.301 
1 -1.767 -3.534 -5.301 
1 -3.534 -3.534 -3.534 
1 -1.767 -1.767 -3.534 
1 1.767 -3.534 -5.301 
1 3.534 -1.767 -5.301 
1 3.534 -3.534 -3.534 
1 0 -1.767 -5.301 
1 0 -3.534 -3.534 
2 1.767 -1.767 -3.534 
1 7.068 -1.767 -5.301 
1 7.068 -3.534 -3.534 
1 5.301 -3.534 -5.301 
1 5.301 -1.767 -3.534 
2 12.369 -3.534 -5.301 
1 12.369 -1.767 -3.534 
1 10.602 -1.767 -5.301 
1 10.602 -3.534 -3.534 
1 8.835 -3.534 -5.301 
1 8.835 -1.767 -3.534 
2 14.136 -3.534 -3.534 
1 -3.534 -14.136 -0 
1 -1.767 -14.136 -1.767 
1 -1.767 -14.136 1.767 
1 3.534 -14.136 -0 
1 1.767 -14.136 -1.767 
2 1.767 -14.136 1.767 
1 0 -14.136 -0 
1 -10.602 -10.602 -0 
1 -10.602 -8.835 -1.767 
1 -8.835 -10.602 -1.767 
1 -10.602 -8.835 1.767 
2 -8.835 -10.602 1.767 
1 -8.835 -8.835 -0 
2 -7.068 -12.369 -1.767 
2 -7.068 -12.369 1.767 
1 -5.301 -12.369 -0 
1 -7.068 -10.602 -0 
2 -5.301 -10.602 -1.767 
2 -5.301 -10.602 1.767 
1 -7.068 -8.835 -1.767 
1 -7.068 -8.835 1.767 
1 -5.301 -8.835 -0 
1 -3.534 -12.369 -1.767 
1 -3.534 -12.369 1.767 
1 -1.767 -12.369 -0 
1 -3.534 -10.602 -0 
1 -1.767 -10.602 -1.767 
1 -1.767 -10.602 1.767 
1 -3.534 -8.835 -1.767 
1 -3.534 -8.835 1.767 
1 -1.767 -8.835 -0 
1 3.534 -12.369 -1.767 
1 3.534 -12.369 1.767 
2 0 -12.369 -1.767 
1 0 -12.369 1.767 
2 1.767 -12.369 -0 
1 3.534 -10.602 -0 
1 1.767 -10.602 -1.767 
1 1.767 -10.602 1.767 
1 0 -10.602 -0 
1 3.534 -8.835 -1.767 
1 3.534 -8.835 1.767 
1 0 -8.835 -1.767 
1 0 -8.835 1.767 
1 1.767 -8.835 -0 
2 7.068 -12.369 -1.767 
1 7.068 -12.369 1.767 
1 5.301 -12.369 -0 
1 7.068 -10.602 -0 
1 5.301 -10.602 -1.767 
1 5.301 -10.602 1.767 
1 7.068 -8.835 -1.767 
2 7.068 -8.835 1.767 
1 5.301 -8.835 -0 
1 10.602 -10.602 -0 
1 8.835 -10.602 -1.767 
1 8.835 -10.602 1.767 
1 10.602 -8.835 -1.767 
1 10.602 -8.835 1.767 
2 8.835 -8.835 0 
1 -12.369 -7.068 -1.767 
2 -12.369 -7.068 1.767 
1 -12.369 -5.301 -0 
2 -10.602 -7.068 -0 
1 -10.602 -5.301 -1.767 
1 -10.602 -5.301 1.767 
1 -8.835 -7.068 -1.767 
1 -8.835 -7.068 1.767 
1 -8.835 -5.301 -0 
1 -7.068 -7.068 -0 
1 -7.068 -5.301 -1.767 
1 -5.301 -7.068 -1.767 
2 -7.068 -5.301 1.767 
1 -5.301 -7.068 1.767 
1 -5.301 -5.301 -0 
1 -3.534 -7.068 -0 
1 -1.767 -7.068 -1.767 
1 -1.767 -7.068 1.767 
1 -3.534 -5.301 -1.767 
1 -3.534 -5.301 1.767 
2 -1.767 -5.301 -0 
1 3.534 -7.068 -0 
2 1.767 -7.068 -1.767 
1 1.767 -7.068 1.767 
1 0 -7.068 -0 
2 3.534 -5.301 -1.767 
1 3.534 -5.301 1.767 
1 0 -5.301 -1.767 
1 0 -5.301 1.767 
1 1.767 -5.301 -0 
1 7.068 -7.068 -0 
1 5.301 -7.068 -1.767 
1 7.068 -5.301 -1.767 
1 5.301 -7.068 1.767 
2 7.068 -5.301 1.767 
1 5.301 -5.301 -0 
1 12.369 -7.068 1.767 
1 12.369 -7.068 -1.767 
2 12.369 -5.301 0 
1 10.602 -7.068 0 
1 10.602 -5.301 1.767 
1 10.602 -5.301 -1.767 
1 8.835 -7.068 -1.767 
1 8.835 -7.068 1.767 
1 8.835 -5.301 0 
1 -14.136 -3.534 -0 
2 -14.136 -1.767 -1.767 
1 -14.136 -1.767 1.767 
1 -12.369 -3.534 -1.767 
1 -12.369 -3.534 1.767 
1 -12.369 -1.767 -0 
1 -10.602 -3.534 -0 
1 -10.602 -1.767 -1.767 
1 -10.602 -1.767 1.767 
1 -8.835 -3.534 -1.767 
2 -8.835 -3.534 1.767 
1 -8.835 -1.767 -0 
1 -7.068 -3.534 -0 
1 -7.068 -1.767 -1.767 
1 -7.068 -1.767 1.767 
1 -5.301 -3.534 -1.767 
2 -5.301 -3.534 1.767 
2 -5.301 -1.767 -0 
1 -3.534 -3.534 -0 
1 -3.534 -1.767 -1.767 
2 -1.767 -3.534 -1.767 
2 -3.534 -1.767 1.767 
1 -1.767 -3.534 1.767 
1 -1.767 -1.767 -0 
2 3.534 -3.534 -0 
2 1.767 -3.534 -1.767 
1 3.534 -1.767 -1.767 
1 1.767 -3.534 1.767 
1 3.534 -1.767 1.767 
1 0 -3.534 -0 
1 0 -1.767 -1.767 
1 0 -1.767 1.767 
1 1.767 -1.767 0 
1 7.068 -3.534 0 
1 7.068 -1.767 -1.767 
1 7.068 -1.767 1.767 
1 5.301 -3.534 -1.767 
1 5.301 -3.534 1.767 
2 5.301 -1.767 0 
2 12.369 -3.534 1.767 
1 12.369 -3.534 -1.767 
1 12.369 -1.767 0 
1 10.602 -3.534 0 
1 10.602 -1.767 1.767 
1 10.602 -1.767 -1.767 
1 8.835 -3.534 -1.767 
1 8.835 -3.534 1.767 
2 8.835 -1.767 0 
2 14.136 -3.534 0 
1 14.136 -1.767 1.767 
1 14.136 -1.767 -1.767 
2 -3.534 -14.136 3.534 
1 3.534 -14.136 3.534 
1 0 -14.136 3.534 
1 -10.602 -8.835 5.301 
2 -8.835 -10.602 5.301 
2 -8.835 -8.835 3.534 
2 -5.301 -12.369 3.534 
1 -7.068 -10.602 3.534 
1 -5.301 -10.602 5.301 
1 -7.068 -8.835 5.301 
2 -5.301 -8.835 3.534 
2 -3.534 -12.369 5.301 
1 -1.767 -12.369 3.534 
1 -1.767 -10.602 5.301 
1 -3.534 -10.602 3.534 
2 -3.534 -8.835 5.301 
1 -1.767 -8.835 3.534 
1 3.534 -12.369 5.301 
2 0 -12.369 5.301 
1 1.767 -12.369 3.534 
1 1.767 -10.602 5.301 
2 3.534 -10.602 3.534 
1 0 -10.602 3.534 
1 3.534 -8.835 5.301 
1 0 -8.835 5.301 
1 1.767 -8.835 3.534 
1 5.301 -12.369 3.534 
1 7.068 -10.602 3.534 
1 5.301 -10.602 5.301 
2 7.068 -8.835 5.301 
2 5.301 -8.835 3.534 
1 8.835 -10.602 5.301 
2 10.602 -8.835 5.301 
2 8.835 -8.835 3.534 
1 -12.369 -5.301 3.534 
1 -10.602 -7.068 3.534 
1 -10.602 -5.301 5.301 
1 -8.835 -7.068 5.301 
1 -8.835 -5.301 3.534 
1 -7.068 -7.068 3.534 
1 -7.068 -5.301 5.301 
1 -5.301 -7.068 5.301 
2 -5.301 -5.301 3.534 
1 -1.767 -7.068 5.301 
1 -3.534 -7.068 3.534 
1 -3.534 -5.301 5.301 
2 -1.767 -5.301 3.534 
1 1.767 -7.068 5.301 
1 3.534 -7.068 3.534 
1 3.534 -5.301 5.301 
1 0 -7.068 3.534 
2 0 -5.301 5.301 
1 1.767 -5.301 3.534 
1 7.068 -7.068 3.534 
1 5.301 -7.068 5.301 
2 7.068 -5.301 5.301 
2 5.301 -5.301 3.534 
2 12.369 -5.301 3.534 
1 10.602 -7.068 3.534 
1 10.602 -5.301 5.301 
1 8.835 -7.068 5.301 
1 8.835 -5.301 3.534 
1 -14.136 -3.534 3.534 
1 -12.369 -3.534 5.301 
1 -12.369 -1.767 3.534 
1 -10.602 -1.767 5.301 
1 -10.602 -3.534 3.534 
1 -8.835 -3.534 5.301 
2 -8.835 -1.767 3.534 
1 -7.068 -1.767 5.301 
2 -7.068 -3.534 3.534 
1 -5.301 -3.534 5.301 
1 -5.301 -1.767 3.534 
2 -3.534 -1.767 5.301 
2 -1.767 -3.534 5.301 
1 -3.534 -3.534 3.534 
1 -1.767 -1.767 3.534 
1 1.767 -3.534 5.301 
1 3.534 -1.767 5.301 
1 3.534 -3.534 3.534 
1 0 -1.767 5.301 
1 0 -3.534 3.534 
1 1.767 -1.767 3.534 
1 7.068 -1.767 5.301 
1 7.068 -3.534 3.534 
1 5.301 -3.534 5.301 
1 5.301 -1.767 3.534 
1 12.369 -3.534 5.301 
2 12.369 -1.767 3.534 
2 10.602 -1.767 5.301 
1 10.602 -3.534 3.534 
2 8.835 -3.534 5.301 
1 8.835 -1.767 3.534 
1 14.136 -3.534 3.534 
1 -8.835 -8.835 7.068 
1 -5.301 -8.835 10.602 
1 -5.301 -10.602 8.835 
1 -7.068 -10.602 7.068 
2 -7.068 -8.835 8.835 
1 -5.301 -8.835 7.068 
1 -1.767 -12.369 7.068 
2 -1.767 -8.835 10.602 
1 -1.767 -10.602 8.835 
1 -3.534 -10.602 7.068 
1 -3.534 -8.835 8.835 
1 -1.767 -8.835 7.068 
1 0 -10.602 10.602 
1 1.767 -12.369 7.068 
1 1.767 -8.835 10.602 
1 1.767 -10.602 8.835 
1 3.534 -10.602 7.068 
1 3.534 -8.835 8.835 
1 0 -10.602 7.068 
1 0 -8.835 8.835 
1 1.767 -8.835 7.068 
1 5.301 -8.835 10.602 
1 5.301 -10.602 8.835 
1 7.068 -10.602 7.068 
1 7.068 -8.835 8.835 
1 5.301 -8.835 7.068 
1 8.835 -8.835 7.068 
1 -8.835 -5.301 10.602 
1 -10.602 -5.301 8.835 
2 -10.602 -7.068 7.068 
1 -8.835 -7.068 8.835 
1 -8.835 -5.301 7.068 
1 -7.068 -7.068 10.602 
1 -5.301 -5.301 10.602 
1 -7.068 -5.301 8.835 
1 -5.301 -7.068 8.835 
1 -7.068 -7.068 7.068 
1 -5.301 -5.301 7.068 
2 -3.534 -7.068 10.602 
1 -1.767 -5.301 10.602 
1 -1.767 -7.068 8.835 
2 -3.534 -5.301 8.835 
1 -3.534 -7.068 7.068 
1 -1.767 -5.301 7.068 
1 3.534 -7.068 10.602 
1 0 -7.068 10.602 
1 1.767 -5.301 10.602 
1 1.767 -7.068 8.835 
1 3.534 -5.301 8.835 
1 3.534 -7.068 7.068 
2 0 -5.301 8.835 
1 0 -7.068 7.068 
2 1.767 -5.301 7.068 
1 7.068 -7.068 10.602 
1 5.301 -5.301 10.602 
1 5.301 -7.068 8.835 
1 7.068 -5.301 8.835 
1 7.068 -7.068 7.068 
2 5.301 -5.301 7.068 
1 10.602 -5.301 8.835 
1 8.835 -5.301 10.602 
1 10.602 -7.068 7.068 
1 8.835 -7.068 8.835 
1 8.835 -5.301 7.068 
2 -12.369 -1.767 7.068 
1 -8.835 -1.767 10.602 
1 -10.602 -1.767 8.835 
2 -10.602 -3.534 7.068 
1 -8.835 -3.534 8.835 
2 -8.835 -1.767 7.068 
1 -7.068 -3.534 10.602 
1 -5.301 -1.767 10.602 
1 -7.068 -1.767 8.835 
2 -5.301 -3.534 8.835 
1 -7.068 -3.534 7.068 
1 -5.301 -1.767 7.068 
1 -3.534 -3.534 10.602 
1 -1.767 -1.767 10.602 
1 -3.534 -1.767 8.835 
2 -1.767 -3.534 8.835 
1 -3.534 -3.534 7.068 
1 -1.767 -1.767 7.068 
1 3.534 -3.534 10.602 
1 0 -3.534 10.602 
1 1.767 -1.767 10.602 
1 1.767 -3.534 8.835 
1 3.534 -1.767 8.835 
1 0 -1.767 8.835 
2 3.534 -3.534 7.068 
2 0 -3.534 7.068 
1 1.767 -1.767 7.068 
1 7.068 -3.534 10.602 
1 5.301 -1.767 10.602 
1 7.068 -1.767 8.835 
1 5.301 -3.534 8.835 
1 7.068 -3.534 7.068 
1 5.301 -1.767 7.068 
2 12.369 -1.767 7.068 
1 10.602 -1.767 8.835 
1 8.835 -1.767 10.602 
1 10.602 -3.534 7.068 
1 8.835 -3.534 8.835 
1 8.835 -1.767 7.068 
1 -1.767 -7.068 12.369 
1 -3.534 -5.301 12.369 
2 1.767 -7.068 12.369 
1 3.534 -5.301 12.369 
1 0 -5.301 12.369 
1 -7.068 -1.767 12.369 
1 -5.301 -3.534 12.369 
1 -3.534 -3.534 14.136 
1 -1.767 -1.767 14.136 
1 -3.534 -1.767 12.369 
1 -1.767 -3.534 12.369 
1 3.534 -3.534 14.136 
2 0 -3.534 14.136 
1 1.767 -1.767 14.136 
1 1.767 -3.534 12.369 
1 3.534 -1.767 12.369 
1 0 -1.767 12.369 
1 7.068 -1.767 12.369 
2 5.301 -3.534 12.369 
1 -7.068 1.767 -12.369 
1 -5.301 3.534 -12.369 
1 -5.301 -0 -12.369 
2 -3.534 3.534 -14.136 
1 -3.534 -0 -14.136 
2 -1.767 1.767 -14.136 
2 -3.534 1.767 -12.369 
1 -1.767 3.534 -12.369 
2 -1.767 -0 -12.369 
1 3.534 3.534 -14.136 
2 3.534 0 -14.136 
1 0 3.534 -14.136 
1 1.767 1.767 -14.136 
1 0 0 -14.136 
1 3.534 1.767 -12.369 
2 1.767 3.534 -12.369 
2 0 1.767 -12.369 
2 1.767 0 -12.369 
1 7.068 1.767 -12.369 
1 5.301 3.534 -12.369 
2 5.301 0 -12.369 
1 -1.767 7.068 -12.369 
1 -3.534 5.301 -12.369 
1 1.767 7.068 -12.369 
1 3.534 5.301 -12.369 
1 0 5.301 -12.369 
1 -10.602 -0 -10.602 
1 -12.369 1.767 -7.068 
1 -10.602 1.767 -8.835 
1 -8.835 1.767 -10.602 
1 -10.602 3.534 -7.068 
2 -8.835 3.534 -8.835 
1 -10.602 -0 -7.068 
1 -8.835 -0 -8.835 
2 -8.835 1.767 -7.068 
1 -7.068 3.534 -10.602 
1 -7.068 -0 -10.602 
2 -5.301 1.767 -10.602 
2 -7.068 1.767 -8.835 
1 -5.301 3.534 -8.835 
1 -7.068 3.534 -7.068 
1 -5.301 -0 -8.835 
1 -7.068 -0 -7.068 
2 -5.301 1.767 -7.068 
1 -3.534 3.534 -10.602 
1 -3.534 -0 -10.602 
1 -1.767 1.767 -10.602 
1 -3.534 1.767 -8.835 
2 -1.767 3.534 -8.835 
1 -1.767 -0 -8.835 
2 -3.534 3.534 -7.068 
1 -3.534 -0 -7.068 
1 -1.767 1.767 -7.068 
1 3.534 3.534 -10.602 
1 3.534 0 -10.602 
1 0 3.534 -10.602 
1 1.767 1.767 -10.602 
1 0 0 -10.602 
1 3.534 1.767 -8.835 
2 1.767 3.534 -8.835 
1 0 1.767 -8.835 
2 1.767 0 -8.835 
1 3.534 3.534 -7.068 
1 3.534 0 -7.068 
1 0 3.534 -7.068 
2 1.767 1.767 -7.068 
1 0 0 -7.068 
2 7.068 3.534 -10.602 
2 7.068 0 -10.602 
1 5.301 1.767 -10.602 
1 7.068 1.767 -8.835 
1 5.301 3.534 -8.835 
1 7.068 3.534 -7.068 
2 5.301 0 -8.835 
2 7.068 0 -7.068 
1 5.301 1.767 -7.068 
2 10.602 0 -10.602 
2 12.369 1.767 -7.068 
1 8.835 1.767 -10.602 
2 10.602 1.767 -8.835 
1 10.602 3.534 -7.068 
1 8.835 3.534 -8.835 
2 10.602 0 -7.068 
1 8.835 0 -8.835 
1 8.835 1.767 -7.068 
1 -10.602 5.301 -8.835 
1 -8.835 5.301 -10.602 
1 -10.602 7.068 -7.068 
1 -8.835 7.068 -8.835 
1 -8.835 5.301 -7.068 
1 -7.068 7.068 -10.602 
2 -5.301 5.301 -10.602 
1 -7.068 5.301 -8.835 
1 -5.301 7.068 -8.835 
2 -7.068 7.068 -7.068 
1 -5.301 5.301 -7.068 
2 -3.534 7.068 -10.602 
1 -1.767 5.301 -10.602 
1 -1.767 7.068 -8.835 
2 -3.534 5.301 -8.835 
1 -3.534 7.068 -7.068 
1 -1.767 5.301 -7.068 
1 3.534 7.068 -10.602 
1 0 7.068 -10.602 
1 1.767 5.301 -10.602 
2 1.767 7.068 -8.835 
1 3.534 5.301 -8.835 
1 3.534 7.068 -7.068 
2 0 5.301 -8.835 
1 0 7.068 -7.068 
1 1.767 5.301 -7.068 
1 7.068 7.068 -10.602 
1 5.301 5.301 -10.602 
1 7.068 5.301 -8.835 
1 5.301 7.068 -8.835 
1 7.068 7.068 -7.068 
1 5.301 5.301 -7.068 
1 8.835 5.301 -10.602 
1 10.602 5.301 -8.835 
2 10.602 7.068 -7.068 
1 8.835 7.068 -8.835 
1 8.835 5.301 -7.068 
1 -8.835 8.835 -7.068 
1 -5.301 8.835 -10.602 
1 -5.301 10.602 -8.835 
1 -7.068 10.602 -7.068 
1 -7.068 8.835 -8.835 
1 -5.301 8.835 -7.068 
1 -1.767 12.369 -7.068 
2 -1.767 8.835 -10.602 
2 -1.767 10.602 -8.835 
1 -3.534 10.602 -7.068 
1 -3.534 8.835 -8.835 
1 -1.767 8.835 -7.068 
1 0 10.602 -10.602 
2 1.767 12.369 -7.068 
1 1.767 8.835 -10.602 
1 1.767 10.602 -8.835 
1 3.534 10.602 -7.068 
1 3.534 8.835 -8.835 
1 0 10.602 -7.068 
1 0 8.835 -8.835 
1 1.767 8.835 -7.068 
1 5.301 8.835 -10.602 
1 5.301 10.602 -8.835 
1 7.068 10.602 -7.068 
1 7.068 8.835 -8.835 
1 5.301 8.835 -7.068 
1 8.835 8.835 -7.068 
2 -14.136 3.534 -3.534 
1 -14.136 -0 -3.534 
2 -12.369 3.534 -5.301 
1 -12.369 -0 -5.301 
1 -12.369 1.767 -3.534 
2 -10.602 1.767 -5.301 
1 -10.602 3.534 -3.534 
1 -10.602 -0 -3.534 
1 -8.835 3.534 -5.301 
2 -8.835 -0 -5.301 
2 -8.835 1.767 -3.534 
1 -7.068 1.767 -5.301 
2 -7.068 3.534 -3.534 
1 -5.301 3.534 -5.301 
2 -7.068 -0 -3.534 
1 -5.301 -0 -5.301 
1 -5.301 1.767 -3.534 
1 -3.534 1.767 -5.301 
1 -1.767 3.534 -5.301 
1 -3.534 3.534 -3.534 
1 -1.767 -0 -5.301 
1 -3.534 -0 -3.534 
1 -1.767 1.767 -3.534 
1 3.534 1.767 -5.301 
2 1.767 3.534 -5.301 
1 3.534 3.534 -3.534 
1 0 1.767 -5.301 
1 1.767 0 -5.301 
1 3.534 0 -3.534 
1 0 3.534 -3.534 
2 1.767 1.767 -3.534 
1 0 0 -3.534 
1 7.068 1.767 -5.301 
1 7.068 3.534 -3.534 
1 5.301 3.534 -5.301 
1 7.068 0 -3.534 
1 5.301 0 -5.301 
1 5.301 1.767 -3.534 
1 12.369 3.534 -5.301 
2 12.369 0 -5.301 
1 12.369 1.767 -3.534 
1 10.602 1.767 -5.301 
1 10.602 3.534 -3.534 
1 10.602 0 -3.534 
2 8.835 3.534 -5.301 
1 8.835 0 -5.301 
1 8.835 1.767 -3.534 
1 14.136 3.534 -3.534 
2 14.136 0 -3.534 
1 -12.369 5.301 -3.534 
1 -10.602 7.068 -3.534 
1 -10.602 5.301 -5.301 
2 -8.835 7.068 -5.301 
1 -8.835 5.301 -3.534 
1 -7.068 7.068 -3.534 
1 -7.068 5.301 -5.301 
1 -5.301 7.068 -5.301 
1 -5.301 5.301 -3.534 
1 -1.767 7.068 -5.301 
1 -3.534 7.068 -3.534 
1 -3.534 5.301 -5.301 
1 -1.767 5.301 -3.534 
1 1.767 7.068 -5.301 
2 3.534 7.068 -3.534 
1 3.534 5.301 -5.301 
2 0 7.068 -3.534 
1 0 5.301 -5.301 
1 1.767 5.301 -3.534 
1 7.068 7.068 -3.534 
1 7.068 5.301 -5.301 
2 5.301 7.068 -5.301 
1 5.301 5.301 -3.534 
2 12.369 5.301 -3.534 
1 10.602 7.068 -3.534 
1 10.602 5.301 -5.301 
1 8.835 7.068 -5.301 
1 8.835 5.301 -3.534 
1 -8.835 10.602 -5.301 
1 -10.602 8.835 -5.301 
1 -8.835 8.835 -3.534 
1 -5.301 12.369 -3.534 
1 -7.068 10.602 -3.534 
1 -5.301 10.602 -5.301 
1 -7.068 8.835 -5.301 
1 -5.301 8.835 -3.534 
1 -3.534 12.369 -5.301 
1 -1.767 12.369 -3.534 
1 -1.767 10.602 -5.301 
1 -3.534 10.602 -3.534 
2 -3.534 8.835 -5.301 
1 -1.767 8.835 -3.534 
1 3.534 12.369 -5.301 
1 0 12.369 -5.301 
1 1.767 12.369 -3.534 
2 1.767 10.602 -5.301 
1 3.534 10.602 -3.534 
1 0 10.602 -3.534 
1 3.534 8.835 -5.301 
1 0 8.835 -5.301 
1 1.767 8.835 -3.534 
1 5.301 12.369 -3.534 
1 7.068 10.602 -3.534 
2 5.301 10.602 -5.301 
1 7.068 8.835 -5.301 
2 5.301 8.835 -3.534 
1 10.602 8.835 -5.301 
1 8.835 10.602 -5.301 
1 8.835 8.835 -3.534 
2 -3.534 14.136 -3.534 
2 3.534 14.136 -3.534 
1 0 14.136 -3.534 
1 -14.136 3.534 -0 
1 -14.136 1.767 -1.767 
1 -14.136 1.767 1.767 
1 -14.136 -0 -0 
1 -12.369 3.534 -1.767 
2 -12.369 3.534 1.767 
1 -12.369 -0 -1.767 
2 -12.369 -0 1.767 
1 -12.369 1.767 -0 
2 -10.602 3.534 -0 
1 -10.602 1.767 -1.767 
1 -10.602 1.767 1.767 
1 -10.602 -0 -0 
1 -8.835 3.534 -1.767 
1 -8.835 3.534 1.767 
1 -8.835 -0 -1.767 
2 -8.835 -0 1.767 
1 -8.835 1.767 -0 
1 -7.068 3.534 -0 
1 -7.068 1.767 -1.767 
1 -7.068 1.767 1.767 
1 -7.068 -0 -0 
1 -5.301 3.534 -1.767 
1 -5.301 3.534 1.767 
1 -5.301 -0 -1.767 
2 -5.301 -0 1.767 
1 -5.301 1.767 -0 
2 -3.534 3.534 0 
1 -3.534 1.767 -1.767 
2 -1.767 3.534 -1.767 
1 -3.534 1.767 1.767 
1 -1.767 3.534 1.767 
1 -3.534 -0 -0 
1 -1.767 -0 -1.767 
1 -1.767 -0 1.767 
1 -1.767 1.767 -0 
2 3.534 3.534 0 
1 3.534 1.767 -1.767 
2 1.767 3.534 -1.767 
1 3.534 1.767 1.767 
1 1.767 3.534 1.767 
2 3.534 0 0 
1 0 3.534 0 
1 0 1.767 -1.767 
1 1.767 0 -1.767 
1 0 1.767 1.767 
2 1.767 0 1.767 
2 1.767 1.767 0 
1 0 0 0 
1 7.068 3.534 0 
1 7.068 1.767 -1.767 
1 7.068 1.767 1.767 
1 7.068 0 0 
1 5.301 3.534 -1.767 
1 5.301 3.534 1.767 
1 5.301 0 -1.767 
1 5.301 0 1.767 
2 5.301 1.767 0 
1 12.369 3.534 1.767 
1 12.369 3.534 -1.767 
1 12.369 0 1.767 
1 12.369 1.767 0 
2 12.369 0 -1.767 
1 10.602 3.534 0 
1 10.602 1.767 1.767 
2 10.602 1.767 -1.767 
1 10.602 0 0 
1 8.835 3.534 -1.767 
1 8.835 3.534 1.767 
1 8.835 0 -1.767 
2 8.835 0 1.767 
1 8.835 1.767 0 
1 14.136 3.534 0 
1 14.136 1.767 1.767 
2 14.136 1.767 -1.767 
1 14.136 0 0 
1 -12.369 7.068 -1.767 
1 -12.369 7.068 1.767 
1 -12.369 5.301 -0 
1 -10.602 7.068 -0 
1 -10.602 5.301 -1.767 
1 -10.602 5.301 1.767 
1 -8.835 7.068 -1.767 
2 -8.835 7.068 1.767 
1 -8.835 5.301 -0 
1 -7.068 7.068 0 
1 -7.068 5.301 -1.767 
2 -5.301 7.068 -1.767 
1 -7.068 5.301 1.767 
1 -5.301 7.068 1.767 
1 -5.301 5.301 0 
1 -3.534 7.068 0 
1 -1.767 7.068 -1.767 
1 -1.767 7.068 1.767 
1 -3.534 5.301 -1.767 
1 -3.534 5.301 1.767 
2 -1.767 5.301 0 
1 3.534 7.068 0 
1 1.767 7.068 -1.767 
2 1.767 7.068 1.767 
1 0 7.068 0 
1 3.534 5.301 -1.767 
2 3.534 5.301 1.767 
1 0 5.301 -1.767 
1 0 5.301 1.767 
1 1.767 5.301 0 
1 7.068 7.068 0 
1 7.068 5.301 -1.767 
2 5.301 7.068 -1.767 
1 7.068 5.301 1.767 
1 5.301 7.068 1.767 
1 5.301 5.301 0 
2 12.369 7.068 1.767 
1 12.369 7.068 -1.767 
1 12.369 5.301 0 
1 10.602 7.068 0 
1 10.602 5.301 1.767 
1 10.602 5.301 -1.767 
1 8.835 7.068 -1.767 
2 8.835 7.068 1.767 
1 8.835 5.301 0 
2 -10.602 10.602 0 
1 -8.835 10.602 -1.767 
1 -8.835 10.602 1.767 
2 -10.602 8.835 -1.767 
1 -10.602 8.835 1.767 
1 -8.835 8.835 -0 
1 -7.068 12.369 1.767 
1 -7.068 12.369 -1.767 
2 -5.301 12.369 0 
1 -7.068 10.602 0 
1 -5.301 10.602 1.767 
1 -5.301 10.602 -1.767 
1 -7.068 8.835 -1.767 
1 -7.068 8.835 1.767 
1 -5.301 8.835 0 
2 -3.534 12.369 1.767 
1 -3.534 12.369 -1.767 
1 -1.767 12.369 0 
1 -3.534 10.602 0 
2 -1.767 10.602 1.767 
1 -1.767 10.602 -1.767 
1 -3.534 8.835 -1.767 
2 -3.534 8.835 1.767 
1 -1.767 8.835 0 
1 3.534 12.369 1.767 
2 3.534 12.369 -1.767 
1 0 12.369 1.767 
1 0 12.369 -1.767 
2 1.767 12.369 0 
1 3.534 10.602 0 
1 1.767 10.602 1.767 
1 1.767 10.602 -1.767 
1 0 10.602 0 
1 3.534 8.835 -1.767 
1 3.534 8.835 1.767 
2 0 8.835 -1.767 
1 0 8.835 1.767 
1 1.767 8.835 0 
2 7.068 12.369 1.767 
1 7.068 12.369 -1.767 
1 5.301 12.369 0 
1 7.068 10.602 0 
1 5.301 10.602 1.767 
2 5.301 10.602 -1.767 
1 7.068 8.835 -1.767 
1 7.068 8.835 1.767 
2 5.301 8.835 0 
2 10.602 10.602 0 
1 10.602 8.835 1.767 
2 8.835 10.602 1.767 
1 10.602 8.835 -1.767 
1 8.835 10.602 -1.767 
1 8.835 8.835 0 
2 -3.534 14.136 0 
2 -1.767 14.136 1.767 
1 -1.767 14.136 -1.767 
1 3.534 14.136 0 
1 1.767 14.136 1.767 
1 1.767 14.136 -1.767 
1 0 14.136 0 
1 -14.136 3.534 3.534 
1 -14.136 -0 3.534 
1 -12.369 3.534 5.301 
1 -12.369 -0 5.301 
1 -12.369 1.767 3.534 
1 -10.602 1.767 5.301 
1 -10.602 3.534 3.534 
1 -10.602 -0 3.534 
1 -8.835 3.534 5.301 
1 -8.835 -0 5.301 
1 -8.835 1.767 3.534 
1 -7.068 1.767 5.301 
1 -7.068 3.534 3.534 
1 -5.301 3.534 5.301 
1 -7.068 -0 3.534 
1 -5.301 -0 5.301 
2 -5.301 1.767 3.534 
2 -3.534 1.767 5.301 
1 -1.767 3.534 5.301 
1 -3.534 3.534 3.534 
1 -1.767 -0 5.301 
1 -3.534 -0 3.534 
2 -1.767 1.767 3.534 
1 3.534 1.767 5.301 
1 1.767 3.534 5.301 
1 3.534 3.534 3.534 
1 0 1.767 5.301 
1 1.767 0 5.301 
1 3.534 0 3.534 
2 0 3.534 3.534 
2 1.767 1.767 3.534 
1 0 0 3.534 
1 7.068 1.767 5.301 
1 7.068 3.534 3.534 
1 5.301 3.534 5.301 
2 7.068 0 3.534 
1 5.301 0 5.301 
1 5.301 1.767 3.534 
1 12.369 3.534 5.301 
1 12.369 0 5.301 
2 12.369 1.767 3.534 
1 10.602 1.767 5.301 
2 10.602 3.534 3.534 
2 10.602 0 3.534 
1 8.835 3.534 5.301 
1 8.835 0 5.301 
1 8.835 1.767 3.534 
1 14.136 3.534 3.534 
2 14.136 0 3.534 
1 -12.369 5.301 3.534 
1 -10.602 7.068 3.534 
1 -10.602 5.301 5.301 
1 -8.835 7.068 5.301 
1 -8.835 5.301 3.534 
2 -7.068 7.068 3.534 
1 -7.068 5.301 5.301 
2 -5.301 7.068 5.301 
1 -5.301 5.301 3.534 
2 -1.767 7.068 5.301 
1 -3.534 7.068 3.534 
2 -3.534 5.301 5.301 
1 -1.767 5.301 3.534 
1 1.767 7.068 5.301 
1 3.534 7.068 3.534 
1 3.534 5.301 5.301 
1 0 7.068 3.534 
1 0 5.301 5.301 
1 1.767 5.301 3.534 
1 7.068 7.068 3.534 
1 7.068 5.301 5.301 
1 5.301 7.068 5.301 
1 5.301 5.301 3.534 
1 12.369 5.301 3.534 
1 10.602 7.068 3.534 
1 10.602 5.301 5.301 
2 8.835 7.068 5.301 
2 8.835 5.301 3.534 
2 -8.835 10.602 5.301 
1 -10.602 8.835 5.301 
2 -8.835 8.835 3.534 
1 -5.301 12.369 3.534 
1 -7.068 10.602 3.534 
1 -5.301 10.602 5.301 
1 -7.068 8.835 5.301 
1 -5.301 8.835 3.534 
1 -3.534 12.369 5.301 
2 -1.767 12.369 3.534 
1 -1.767 10.602 5.301 
1 -3.534 10.602 3.534 
1 -3.534 8.835 5.301 
1 -1.767 8.835 3.534 
1 3.534 12.369 5.301 
1 0 12.369 5.301 
1 1.767 12.369 3.534 
1 1.767 10.602 5.301 
1 3.534 10.602 3.534 
1 0 10.602 3.534 
1 3.534 8.835 5.301 
1 0 8.835 5.301 
2 1.767 8.835 3.534 
1 5.301 12.369 3.534 
1 7.068 10.602 3.534 
1 5.301 10.602 5.301 
1 7.068 8.835 5.301 
1 5.301 8.835 3.534 
1 10.602 8.835 5.301 
1 8.835 10.602 5.301 
2 8.835 8.835 3.534 
2 -3.534 14.136 3.534 
1 3.534 14.136 3.534 
2 0 14.136 3.534 
1 -10.602 -0 10.602 
1 -12.369 1.767 7.068 
1 -8.835 1.767 10.602 
1 -10.602 1.767 8.835 
1 -10.602 3.534 7.068 
1 -8.835 3.534 8.835 
1 -10.602 -0 7.068 
1 -8.835 -0 8.835 
1 -8.835 1.767 7.068 
1 -7.068 3.534 10.602 
1 -7.068 -0 10.602 
1 -5.301 1.767 10.602 
1 -7.068 1.767 8.835 
1 -5.301 3.534 8.835 
2 -7.068 3.534 7.068 
1 -5.301 -0 8.835 
1 -7.068 -0 7.068 
1 -5.301 1.767 7.068 
2 -3.534 3.534 10.602 
1 -3.534 -0 10.602 
1 -1.767 1.767 10.602 
1 -3.534 1.767 8.835 
1 -1.767 3.534 8.835 
1 -1.767 -0 8.835 
1 -3.534 3.534 7.068 
2 -3.534 -0 7.068 
1 -1.767 1.767 7.068 
1 3.534 3.534 10.602 
1 3.534 0 10.602 
1 0 3.534 10.602 
1 1.767 1.767 10.602 
1 0 0 10.602 
2 3.534 1.767 8.835 
1 1.767 3.534 8.835 
1 0 1.767 8.835 
1 1.767 0 8.835 
1 3.534 3.534 7.068 
1 3.534 0 7.068 
1 0 3.534 7.068 
1 1.767 1.767 7.068 
2 0 0 7.068 
1 7.068 3.534 10.602 
1 7.068 0 10.602 
2 5.301 1.767 10.602 
2 7.068 1.767 8.835 
1 5.301 3.534 8.835 
1 7.068 3.534 7.068 
1 5.301 0 8.835 
1 7.068 0 7.068 
2 5.301 1.767 7.068 
2 10.602 0 10.602 
1 12.369 1.767 7.068 
1 10.602 1.767 8.835 
1 8.835 1.767 10.602 
1 10.602 3.534 7.068 
1 8.835 3.534 8.835 
2 10.602 0 7.068 
2 8.835 0 8.835 
1 8.835 1.767 7.068 
1 -8.835 5.301 10.602 
1 -10.602 5.301 8.835 
1 -10.602 7.068 7.068 
1 -8.835 7.068 8.835 
2 -8.835 5.301 7.068 
1 -7.068 7.068 10.602 
1 -5.301 5.301 10.602 
1 -7.068 5.301 8.835 
1 -5.301 7.068 8.835 
1 -7.068 7.068 7.068 
2 -5.301 5.301 7.068 
1 -3.534 7.068 10.602 
1 -1.767 5.301 10.602 
2 -1.767 7.068 8.835 
1 -3.534 5.301 8.835 
2 -3.534 7.068 7.068 
1 -1.767 5.301 7.068 
2 3.534 7.068 10.602 
1 0 7.068 10.602 
1 1.767 5.301 10.602 
2 1.767 7.068 8.835 
1 3.534 5.301 8.835 
1 3.534 7.068 7.068 
2 0 5.301 8.835 
1 0 7.068 7.068 
1 1.767 5.301 7.068 
1 7.068 7.068 10.602 
1 5.301 5.301 10.602 
1 7.068 5.301 8.835 
1 5.301 7.068 8.835 
1 7.068 7.068 7.068 
1 5.301 5.301 7.068 
1 10.602 5.301 8.835 
1 8.835 5.301 10.602 
1 10.602 7.068 7.068 
1 8.835 7.068 8.835 
1 8.835 5.301 7.068 
2 -8.835 8.835 7.068 
2 -5.301 10.602 8.835 
1 -5.301 8.835 10.602 
1 -7.068 10.602 7.068 
1 -7.068 8.835 8.835 
1 -5.301 8.835 7.068 
2 -1.767 12.369 7.068 
1 -1.767 10.602 8.835 
1 -1.767 8.835 10.602 
2 -3.534 10.602 7.068 
1 -3.534 8.835 8.835 
2 -1.767 8.835 7.068 
1 0 10.602 10.602 
1 1.767 12.369 7.068 
1 1.767 10.602 8.835 
2 1.767 8.835 10.602 
1 3.534 10.602 7.068 
1 3.534 8.835 8.835 
1 0 10.602 7.068 
2 0 8.835 8.835 
1 1.767 8.835 7.068 
2 5.301 10.602 8.835 
1 5.301 8.835 10.602 
1 7.068 10.602 7.068 
1 7.068 8.835 8.835 
1 5.301 8.835 7.068 
1 8.835 8.835 7.068 
1 -7.068 1.767 12.369 
1 -5.301 3.534 12.369 
1 -5.301 -0 12.369 
1 -3.534 3.534 14.136 
1 -3.534 -0 14.136 
1 -1.767 1.767 14.136 
2 -3.534 1.767 12.369 
2 -1.767 3.534 12.369 
1 -1.767 -0 12.369 
1 3.534 3.534 14.136 
1 3.534 0 14.136 
2 0 3.534 14.136 
1 1.767 1.767 14.136 
1 0 0 14.136 
1 3.534 1.767 12.369 
1 1.767 3.534 12.369 
1 0 1.767 12.369 
1 1.767 0 12.369 
1 7.068 1.767 12.369 
1 5.301 3.534 12.369 
1 5.301 0 12.369 
1 -1.767 7.068 12.369 
1 -3.534 5.301 12.369 
1 1.767 7.068 12.369 
1 3.534 5.301 12.369 
1 0 5.301 12.369 
