ITEM: TIMESTEP
1210000
ITEM: NUMBER OF ATOMS
1289
ITEM: BOX BOUNDS pp pp pp
-100 100
-100 100
-100 100
ITEM: ATOMS type x y z 
1 -1.87558 -7.19864 -12.2632 
1 -3.57804 -5.42081 -12.4092 
1 -0.121993 -5.45964 -12.3982 
1 1.82927 -6.8002 -12.4246 
1 3.80069 -5.39489 -12.5828 
1 -7.05475 -1.65264 -12.4624 
2 -5.39111 -3.67355 -12.3803 
1 -5.55917 0.153661 -12.5032 
2 -2.09398 -1.88347 -14.2589 
2 -3.92089 -1.66193 -12.4751 
1 -2.00146 -3.64451 -12.3505 
1 -0.314163 -1.81972 -12.5102 
1 -0.23201 -3.55718 -14.1664 
2 5.27225 -3.53926 12.4832 
2 -1.94686 0.0802212 -12.5304 
2 3.45491 -3.5378 -14.1017 
1 1.62464 -3.65418 -12.5094 
1 3.42808 -1.80662 -12.418 
1 1.60745 -1.8175 -14.381 
2 3.40744 -0.14671 -14.2989 
2 1.61756 -0.0145449 -12.4815 
1 5.1488 -1.8413 -14.2467 
2 7.08089 -1.88127 -12.5251 
2 5.47167 -3.70023 -12.4763 
1 -8.92797 -8.90016 -7.14123 
2 -5.36244 -10.6678 -8.84723 
1 -5.40952 -9.06397 -10.6937 
1 -7.28058 -8.92826 -8.908 
1 -5.36656 -8.93382 -6.92629 
1 -7.13796 -10.6125 -7.09301 
1 -1.59518 -12.6521 -7.20869 
1 -1.91851 -10.8228 -9.07308 
1 -1.93337 -8.92835 -10.5982 
1 -3.52082 -11.0855 -7.1784 
2 -3.6865 -8.96902 -8.81772 
1 -1.86683 -9.0547 -7.05863 
1 -0.20142 -9.12005 -8.93141 
1 -0.0545803 -10.2225 -11.1082 
2 -0.0641202 -10.7669 -7.12355 
1 1.73046 -12.4617 -7.16847 
2 1.71831 -10.6575 -9.17643 
1 1.77387 -8.81301 -10.7288 
1 3.5483 -10.806 -7.35567 
2 3.57143 -8.8314 -8.9103 
1 1.79456 -9.00618 -7.21424 
1 5.15916 -10.5185 -9.05829 
1 7.35473 -8.78423 -8.98569 
1 5.53484 -8.67546 -7.18807 
1 7.13326 -10.484 -7.1698 
1 5.33367 -8.64719 -10.6405 
1 9.04472 -8.9112 -7.15965 
1 -10.5873 -5.10003 -8.77054 
1 -8.8147 -4.95691 -10.5649 
1 -8.88933 -6.93526 -8.97352 
2 -8.92794 -5.18917 -6.9197 
2 -10.6582 -7.0128 -7.17116 
1 -6.95092 -7.15019 -10.5514 
1 -5.52491 -5.18589 -10.682 
1 -7.15118 -5.12589 -8.85294 
1 -5.38719 -7.17455 -8.89856 
2 -7.1258 -7.18874 -7.15709 
1 -5.37052 -5.30382 -7.15962 
2 -3.85423 -7.06451 -10.6129 
1 -1.88928 -5.41299 -10.5936 
1 -1.9967 -7.21834 -8.88702 
1 -3.74172 -5.30341 -8.76425 
1 -3.68743 -7.15344 -7.04564 
2 -1.91706 -5.29479 -6.98775 
1 -0.180829 -7.27525 -10.4666 
2 -0.145063 -5.37367 -8.86146 
2 -0.0243961 -7.27055 -7.14933 
2 3.56422 -6.9107 -10.5851 
1 1.64197 -5.3739 -10.6563 
1 1.75693 -7.26129 -9.00543 
1 3.5918 -5.27153 -8.93373 
1 3.55865 -7.10305 -7.19644 
2 1.88032 -5.28275 -7.24561 
1 7.18618 -6.95534 -10.562 
1 5.41823 -5.35957 -10.7593 
1 5.40728 -7.01773 -8.8582 
1 7.21278 -5.32392 -8.96525 
1 7.10163 -6.8463 -7.12845 
1 5.29857 -5.17139 -7.09097 
1 9.20215 -5.07891 -10.6458 
1 10.7104 -4.98329 -8.77178 
1 10.6898 -7.09906 -7.04838 
2 8.98336 -6.99773 -8.71606 
1 8.9413 -5.10314 -7.0205 
1 -12.6427 -1.52703 -7.02955 
1 -10.7776 -1.68404 -8.67119 
1 -9.04645 -1.69994 -10.6797 
1 -10.8794 -3.47873 -6.89125 
1 -8.88161 -3.43134 -8.76212 
1 -8.9047 -1.79674 -6.84237 
1 -8.95884 -0.130272 -8.7356 
1 -10.797 -0.04745 -6.90198 
1 -7.20326 -3.26211 -10.5656 
1 -5.4547 -1.77184 -10.5713 
1 -7.13049 -1.66618 -8.74549 
1 -5.33039 -3.46274 -8.80764 
1 -6.98838 -3.46741 -7.08539 
1 -5.33205 -1.62513 -7.0533 
1 -7.23545 0.0154174 -6.96822 
1 -5.42206 0.0690717 -8.8848 
1 7.01407 -1.59996 12.3578 
1 -3.70716 -3.54904 -10.5413 
1 -1.99136 -1.75593 -10.7299 
1 -3.76689 -1.61949 -8.95123 
2 -1.99055 -3.53924 -8.89661 
1 -3.73429 -3.39122 -7.03795 
1 -1.90383 -1.59541 -7.15896 
1 -0.140202 -3.5387 -10.6847 
1 -0.162274 -1.78389 -8.93811 
1 -0.0762639 -3.50495 -7.13816 
1 -3.61011 0.0136223 -7.14548 
1 5.22918 -0.144525 12.3286 
1 1.7661 -0.155126 12.4191 
1 3.54331 -1.81673 12.3608 
1 -1.85282 0.0513385 -9.03164 
1 3.41549 -3.69053 -10.8357 
1 1.60552 -1.91121 -10.8524 
1 1.59468 -3.46279 -9.03024 
2 3.56952 -1.90195 -9.09533 
1 3.70971 -3.46876 -7.16322 
1 1.63943 -1.75359 -7.18682 
1 3.58739 -0.0687096 -7.19022 
1 1.76715 -3.54915 12.5511 
1 7.20235 -3.6121 -10.6933 
1 5.23758 -1.92543 -10.8704 
1 7.09605 -1.82507 -9.08517 
1 5.3578 -3.58471 -9.01719 
1 7.05654 -3.59695 -7.06384 
1 5.44914 -1.8079 -7.20227 
2 5.35704 0.0362938 -9.13768 
1 9.01065 -2.16546 -10.6726 
1 10.8578 -3.49681 -6.98635 
1 8.79227 -3.48686 -8.81324 
2 8.9239 -1.89532 -7.10601 
2 10.8051 -1.94611 -9.01689 
2 10.6291 0.00818516 -7.28442 
1 12.5155 -1.54735 -6.99632 
1 -1.76061 -14.0712 -5.35811 
1 -3.81743 -12.7743 -5.09808 
2 0.0303392 -14.3561 -3.59456 
2 2.05635 -12.6858 -3.64189 
1 -10.7167 -8.75382 -5.33601 
1 -8.84283 -10.479 -5.36357 
2 -9.0006 -8.88213 -3.39917 
1 -5.40189 -12.4752 -3.47496 
1 -7.24658 -10.7063 -3.5116 
1 -5.3661 -10.7717 -5.27187 
1 -7.00514 -8.95975 -5.2445 
1 -5.31417 -8.97063 -3.603 
1 -1.9032 -12.6731 -3.47446 
2 -1.91381 -11.0373 -5.33338 
1 -3.64085 -10.755 -3.50328 
1 -3.62707 -9.08982 -5.35153 
2 -1.91081 -8.87387 -3.56162 
1 0.0392028 -8.89971 -5.37479 
1 3.62551 -12.446 -5.68681 
1 0.193758 -12.7258 -5.37039 
2 0.119753 -10.7873 -3.66548 
1 1.91899 -10.7143 -5.37104 
1 3.67692 -10.6448 -3.71278 
1 3.62038 -8.98489 -5.71835 
1 1.90705 -8.95871 -3.68587 
1 5.18372 -12.5055 -3.61629 
2 7.01174 -10.7799 -3.64508 
1 5.38076 -10.7282 -5.49599 
1 7.226 -8.74369 -5.43748 
2 5.28753 -8.82263 -3.66749 
1 8.88094 -10.465 -5.25395 
2 8.85641 -8.78051 -3.54504 
1 10.6912 -8.80357 -5.17521 
1 8.81129 -10.9319 -1.91361 
1 -12.774 -5.43313 -3.49116 
1 -10.9734 -7.20552 -3.51142 
1 -10.9695 -5.37592 -5.29274 
2 -8.87558 -7.03088 -5.22744 
1 -9.00793 -5.40273 -3.46553 
1 -7.16793 -7.07554 -3.49278 
1 -7.10538 -5.22348 -5.25959 
1 -5.42736 -7.12425 -5.18328 
1 -5.31315 -5.31721 -3.51161 
1 -1.83607 -7.20166 -5.37464 
1 -3.54188 -6.98454 -3.58429 
1 -3.73879 -5.20065 -5.37643 
1 -1.75215 -5.43519 -3.72552 
1 -0.0333636 -7.30626 -3.72146 
2 -0.0248052 -5.22297 -5.35895 
2 1.86645 -7.18734 -5.40595 
1 3.62309 -7.10888 -3.55691 
1 3.50581 -5.38438 -5.34946 
1 1.77202 -5.2456 -3.70226 
1 6.99202 -6.99784 -3.57627 
1 5.31224 -7.08731 -5.45256 
1 6.90425 -5.203 -5.13609 
1 5.24949 -5.33262 -3.55913 
1 10.7146 -7.03655 -3.51507 
1 10.8855 -5.23648 -5.29923 
2 8.90892 -6.90242 -5.34912 
2 8.8079 -5.2416 -3.45685 
1 12.5472 -5.19014 -3.24693 
1 -14.2309 -3.48554 -3.29803 
1 -12.6978 -3.54348 -5.35349 
2 -12.5036 -1.65608 -3.58196 
1 -10.7955 -1.6713 -5.22167 
2 -10.7403 -3.65965 -3.59671 
1 -9.01407 -3.46423 -5.24051 
2 -8.93508 -1.80866 -3.44146 
2 -8.98613 0.1128 -5.22644 
2 -6.95285 -1.73076 -5.17005 
1 -7.28174 -3.69174 -3.45691 
1 -5.3506 -3.53469 -5.26213 
1 -5.32872 -1.86509 -3.38846 
1 -3.57509 -1.68564 -5.28014 
1 -1.74705 -3.35503 -5.2298 
1 -3.54559 -3.56563 -3.52407 
1 -1.70179 -1.77286 -3.43854 
1 0.0146747 -3.47976 -3.58786 
1 0.00168784 -1.72899 -5.38953 
1 2.06927 -1.99064 14.2408 
1 -1.73575 -0.0376758 -5.3272 
1 -0.109457 0.057065 -3.64158 
1 1.82849 -3.52442 -5.42165 
1 3.65556 -1.7477 -5.43033 
1 3.57646 -3.36923 -3.67502 
2 1.74638 -1.63724 -3.56671 
1 7.0454 -1.75363 -5.266 
1 7.09422 -3.35123 -3.50396 
1 5.30953 -3.53816 -5.35508 
1 5.32989 -1.70815 -3.64918 
1 10.6443 -1.68099 -5.29003 
1 10.6681 -3.43625 -3.54091 
1 8.93099 -3.50327 -5.23308 
1 8.88484 -1.63127 -3.56423 
1 12.2902 -1.62202 -3.35028 
2 12.5188 0.116715 -5.2227 
2 12.5706 -3.35435 -5.04795 
2 14.2017 -2.86248 -2.91629 
1 -5.24899 -12.4572 0.042501 
2 -7.16506 -12.4552 1.47396 
1 -3.71988 -14.2364 0.196821 
1 -1.85986 -14.3109 -1.65893 
1 -1.76092 -14.4225 1.69654 
1 -3.62428 -12.5247 -1.77722 
1 1.84885 -14.4417 -1.65903 
1 -0.115129 -14.2841 -0.052389 
1 3.41303 -14.2644 0.0406163 
2 1.55987 -14.0986 1.74673 
1 5.19877 -14.3057 -1.88668 
1 -10.871 -10.4451 -0.0772704 
1 -10.9696 -8.84753 -1.80614 
1 -9.00091 -10.6413 -1.78118 
2 -9.12018 -10.9377 1.44473 
1 -8.91503 -8.90884 -0.0428854 
2 -10.842 -8.82332 1.84815 
2 -7.1406 -12.3808 -1.5943 
1 -7.19412 -10.4313 -0.110334 
2 -5.26947 -10.6203 -1.65954 
2 -5.26785 -10.6439 1.64245 
1 -7.07214 -8.88988 -1.86898 
1 -7.16746 -8.81658 1.6688 
1 -5.30093 -8.76063 -0.0234182 
1 -1.8303 -12.4995 0.025685 
1 -3.53392 -12.373 1.81387 
1 -3.43905 -10.6128 0.00856887 
1 -1.71468 -10.8293 -1.85083 
1 -1.76722 -10.6654 1.7888 
1 -3.68614 -8.8323 -1.80389 
1 -3.55964 -8.9187 1.7673 
1 -1.73056 -8.97299 -0.0634669 
1 -0.154465 -12.4595 1.62561 
1 -0.0509259 -9.11807 -1.91017 
2 0.0133693 -12.5776 -1.91321 
1 -0.0215808 -10.7601 -0.0847643 
1 -0.0437915 -9.00982 1.68667 
2 1.75601 -12.3984 -0.113364 
1 3.63712 -12.3918 1.70697 
1 3.64336 -12.579 -1.8346 
1 3.60034 -10.7873 -0.0167369 
1 1.91251 -10.7926 -2.00505 
1 1.69704 -10.6846 1.67525 
1 3.48455 -8.95061 -1.83437 
1 3.47004 -8.87594 1.61212 
1 1.6768 -8.94747 -0.0718187 
1 5.46673 -12.6779 -0.0630342 
2 7.03615 -12.5482 -1.84123 
1 6.99123 -12.3445 1.86651 
1 7.00708 -10.7961 -0.0199899 
1 5.30265 -10.7687 -1.71898 
1 5.3016 -10.6357 1.72757 
1 6.92227 -8.92907 -1.90762 
2 7.12091 -9.00247 1.68255 
1 5.23908 -8.84442 -0.16058 
1 8.72952 -12.4098 -0.0437626 
1 10.6948 -9.02194 -1.87055 
1 10.7992 -9.01329 1.75575 
2 8.86329 -9.14005 -0.126896 
1 8.91347 -10.7296 1.88489 
1 -12.7378 -5.41513 0.279078 
1 -12.6263 -6.98944 -1.64825 
2 -10.7043 -7.12631 0.0545451 
1 -10.8568 -5.38063 -1.79063 
1 -10.6786 -5.28218 1.90333 
1 -9.10519 -7.12516 -1.76717 
1 -8.95545 -7.12126 1.73852 
1 -9.03068 -5.45227 -0.0901815 
1 -7.16499 -7.18072 -0.0819563 
1 -7.114 -5.40035 -1.82831 
1 -5.37257 -7.15751 -1.8368 
2 -7.11787 -5.33318 1.67588 
1 -5.29574 -7.12113 1.67271 
1 -5.30426 -5.34652 0.0435424 
1 -3.45672 -7.11372 -0.0814263 
1 -1.8202 -7.14862 -1.77689 
1 -1.73684 -7.22496 1.71922 
1 -3.54532 -5.29335 -1.842 
1 -3.5249 -5.42281 1.76152 
2 -1.66787 -5.39785 0.0682829 
1 -0.0302593 -5.45873 -1.92788 
1 0.0241055 -7.21605 -0.163206 
1 0.0386139 -5.39535 1.83077 
1 3.50765 -7.13872 -0.102315 
2 1.66162 -7.2315 -1.97796 
1 1.80227 -7.17031 1.7164 
2 3.5758 -5.21933 -1.83143 
1 3.35825 -5.47193 1.7731 
1 1.6132 -5.35758 -0.0916475 
1 7.08975 -7.21353 -0.202625 
1 5.26485 -7.18036 -1.773 
1 7.02103 -5.34693 -1.74577 
1 5.34802 -7.09984 1.57019 
2 7.0876 -5.35202 1.60015 
1 5.21118 -5.42705 -0.0739836 
1 10.5341 -7.2887 0.00126151 
1 10.6456 -5.31231 1.62604 
1 10.5149 -5.31256 -1.77167 
1 8.8695 -7.15558 -1.78897 
1 8.98257 -7.13137 1.54591 
1 8.79033 -5.295 -0.115642 
2 12.415 -5.34097 -0.121162 
1 12.3245 -7.03916 1.68668 
1 12.3542 -7.0546 -1.77077 
1 -14.1453 -3.38845 0.157701 
2 -14.1893 -1.71616 -1.65486 
1 -14.2953 -1.64187 2.09954 
1 -12.5608 -3.65824 -1.7375 
1 -12.4705 -1.8232 0.0794736 
1 -12.454 -3.46889 1.82211 
1 -10.8666 -3.7179 -0.095247 
1 -10.7554 -1.85855 -1.64983 
1 -10.7376 -1.75088 1.84539 
1 -8.95453 -3.66712 -1.58761 
2 -8.90897 -3.52281 1.70925 
1 -9.08897 -1.7323 -0.000341756 
1 -7.21674 -3.60066 -0.0323579 
1 -7.14312 -1.88409 -1.65423 
1 -7.12891 -1.72238 1.8808 
1 -5.32232 -3.6447 -1.74343 
2 -5.29142 -3.52639 1.79017 
2 -5.38005 -1.80061 -0.069858 
1 -3.39706 -3.47675 -0.0516003 
1 -3.56913 -1.79456 -1.79404 
2 -1.62639 -3.58838 -1.80854 
2 -3.42892 -1.79934 1.9197 
1 -1.70268 -3.64364 1.8089 
1 -1.72736 -1.83928 -0.0146848 
1 -0.0867109 -1.70841 1.97642 
1 0.00261937 -0.0132338 0.063732 
1 0.187276 -0.350409 14.323 
1 -0.00080231 -1.70677 -1.74572 
1 -0.0130557 -3.48922 0.0873121 
2 3.4161 -3.60737 0.119749 
2 1.61007 -3.53279 -1.79983 
1 3.58048 -1.73621 -1.74164 
1 1.63988 -3.53108 1.8523 
1 3.52452 -1.84383 1.91166 
1 1.57544 -1.74045 0.116689 
2 1.79381 -0.0858318 1.94584 
1 -3.39446 -0.180818 14.3341 
1 7.03231 -3.59047 -0.110851 
1 7.14152 -1.58555 -1.78399 
1 7.02176 -1.80546 1.78784 
1 5.34166 -3.36521 -1.73989 
1 5.41341 -3.51687 1.73213 
2 5.29372 -1.70047 0.0740274 
1 -1.6976 -1.86568 14.1692 
1 -1.81567 -3.58902 12.3713 
1 5.36683 0.0333632 1.93325 
1 10.5238 -3.49092 -0.0541823 
1 10.7038 -1.63112 1.74886 
1 10.5872 -1.62068 -1.74399 
1 8.93525 -3.46986 -1.91854 
1 8.88148 -3.53372 1.78088 
2 8.83837 -1.70747 0.0716502 
1 12.1265 -3.40645 -1.76277 
1 12.4268 -1.80009 -0.202901 
1 -3.51529 -1.869 12.5803 
2 -0.175433 -3.63408 14.1568 
1 0.0215971 -1.81879 12.3954 
2 12.4356 -3.44491 1.63513 
2 14.2972 -3.44123 -0.427215 
1 14.5522 -1.06303 -1.24162 
1 14.4647 -1.61016 1.39275 
2 -5.44985 -12.3769 3.48985 
2 -3.51326 -14.0043 3.5307 
1 -0.160062 -14.276 3.537 
2 0.128802 -12.5735 5.4169 
1 3.35126 -14.0746 3.40091 
1 3.29134 -12.4237 5.41279 
1 5.28616 -12.4471 3.57062 
1 -10.477 -10.8293 3.47074 
1 -10.8078 -8.94219 5.136 
2 -8.85415 -8.85212 3.4727 
2 -8.88833 -10.5925 5.39583 
1 -7.33735 -10.8004 3.35894 
1 -5.38561 -10.7175 5.48419 
1 -7.10144 -8.83619 5.39772 
2 -5.45902 -8.99128 3.51357 
2 -3.50376 -12.2856 5.29105 
1 -1.62663 -12.4079 3.624 
1 -1.65573 -10.6159 5.34796 
1 -3.4417 -10.7413 3.56418 
2 -3.64749 -9.05439 5.40765 
1 -1.78735 -8.93545 3.5698 
1 1.6473 -12.4518 3.52197 
1 -0.0619659 -8.76356 5.29386 
1 -0.0432399 -10.6702 3.47021 
1 1.7278 -10.5145 5.26038 
2 3.54435 -10.6634 3.48441 
1 3.41908 -8.98079 5.43183 
1 1.70569 -9.00573 3.4575 
1 7.11975 -10.6475 3.71952 
1 5.35216 -10.6613 5.4268 
2 7.17638 -8.66996 5.31073 
2 5.30872 -8.82166 3.50633 
1 8.98447 -10.4063 5.53752 
2 8.9621 -8.88047 3.43837 
2 10.6833 -8.53935 5.33442 
1 -12.491 -5.47096 3.6861 
1 -10.7409 -7.00895 3.57178 
1 -10.6323 -5.37464 5.31466 
1 -8.84038 -7.1562 5.44159 
1 -8.9025 -5.31017 3.59822 
1 -7.08569 -7.11997 3.46385 
1 -7.17053 -5.2392 5.38206 
1 -5.3456 -7.13168 5.42003 
2 -5.26403 -5.41097 3.65439 
1 -1.94786 -7.12895 5.44569 
1 -3.59138 -7.25703 3.50925 
1 -3.63626 -5.42608 5.47051 
2 -1.85686 -5.59807 3.58325 
2 -0.00219566 -5.54513 5.40032 
1 0.0283345 -7.2533 3.42955 
1 1.87049 -7.19156 5.22797 
1 3.47613 -7.15378 3.45462 
1 3.52809 -5.35527 5.26555 
1 1.79179 -5.3079 3.53606 
1 7.1587 -7.13474 3.32091 
1 5.22925 -7.11258 5.28706 
2 6.93346 -5.44613 5.25175 
2 5.26665 -5.36062 3.35505 
1 10.6044 -7.08933 3.33286 
1 10.7383 -5.49512 5.08215 
1 8.92811 -6.90507 5.44037 
1 9.01684 -5.47221 3.38386 
2 12.5787 -5.32168 3.27544 
1 -5.28264 -0.211436 12.5719 
1 -13.9749 -3.58804 3.5797 
1 -12.4325 -3.54249 5.32848 
1 -12.3741 -1.67387 3.68301 
1 -10.7352 -1.70202 5.47812 
1 -10.6735 -3.43384 3.7325 
1 -8.83908 -3.4549 5.44765 
2 -8.86013 -1.59006 3.75763 
1 -6.92304 -1.64519 5.45744 
2 -7.20453 -3.51584 3.57568 
1 -5.33883 -3.56852 5.49566 
1 -5.36094 -1.78717 3.70362 
1 -7.04219 0.108499 3.73807 
2 -3.7353 -1.9214 5.4163 
2 -1.77456 -3.70908 5.39642 
1 -3.56475 -3.65253 3.64715 
1 -1.7561 -1.82762 3.69501 
1 -7.27742 -1.67081 12.3958 
1 -0.0347198 -1.78979 5.40553 
1 -5.40281 -3.33002 12.5409 
1 -0.0982874 -3.66757 3.64634 
1 1.74114 -3.55035 5.21924 
1 3.44338 -1.84675 5.28406 
1 3.48631 -3.61845 3.45731 
1 1.72938 -1.87189 3.5987 
1 3.52836 -0.0291529 3.64346 
1 1.76367 0.00159925 5.34716 
1 6.99664 -1.85988 5.27049 
1 7.14926 -3.52425 3.49135 
1 5.33789 -3.6934 5.19215 
1 5.2536 -1.81182 3.59982 
1 5.15204 0.126079 5.36088 
2 10.74 -1.80849 5.29173 
1 10.6413 -3.58586 3.43681 
2 8.86353 -3.61462 5.28617 
1 8.81124 -1.75897 3.48321 
2 12.5935 -1.64597 3.28541 
1 8.85306 0.0510769 5.35793 
1 12.5302 -3.67707 5.1893 
1 14.296 -3.41803 3.36266 
1 14.225 -1.73795 5.1589 
1 0.0458117 -5.3186 12.2741 
1 3.58855 -5.46803 12.5969 
1 -8.91933 -8.8994 7.3262 
1 -5.2507 -9.00515 10.6259 
1 -5.19613 -10.6721 8.84358 
1 -7.12165 -10.5595 7.16772 
2 -7.07476 -8.79415 8.89739 
1 -5.42437 -8.81376 7.17866 
1 -1.60481 -12.3909 7.07705 
2 -1.91774 -8.82182 10.7671 
1 -1.75453 -10.5846 8.93081 
1 -3.52286 -10.6683 7.16866 
1 -3.55217 -8.84164 9.00189 
1 -1.84962 -8.87439 7.14412 
1 -0.0301831 -10.5626 7.22353 
1 -0.0657199 -8.84599 9.10458 
1 1.8 -12.3235 7.21725 
1 1.89426 -10.6504 9.06396 
1 3.59139 -10.6858 7.08994 
1 3.58616 -8.90036 8.90625 
1 1.65296 -8.90511 7.10971 
1 1.91195 -8.98734 10.8391 
1 7.23291 -10.348 7.23589 
1 5.36316 -8.86188 10.6692 
1 5.34478 -10.4309 8.82556 
1 7.2584 -8.78842 9.00466 
1 5.30734 -8.80245 7.00314 
1 9.06508 -8.65247 7.28084 
1 -10.8096 -5.25122 8.9459 
2 -10.7475 -6.97281 7.03456 
1 -8.99468 -7.10432 9.15453 
1 -8.82871 -5.40637 7.22397 
1 -9.02278 -5.27642 10.6532 
1 -6.82469 -7.14984 10.7785 
1 -7.20426 -5.45445 8.91706 
1 -5.34006 -7.0774 8.96722 
1 -7.15405 -7.04891 7.19308 
1 -5.36785 -5.33537 7.11736 
1 -5.62749 -5.18833 10.9246 
2 -3.79368 -7.06759 10.7822 
1 -1.86847 -5.31609 10.6806 
1 -1.74396 -7.18068 8.98604 
2 -3.66795 -5.30267 9.01116 
1 -3.57392 -7.12138 7.30593 
1 -1.83766 -5.42542 7.20319 
1 -0.0707296 -7.18585 7.22552 
2 -0.0135015 -5.41424 9.05859 
1 -0.0361555 -6.99301 10.8301 
1 3.49055 -7.26416 10.8478 
1 1.92961 -5.33996 10.7803 
1 1.75651 -7.22527 8.96598 
1 3.55321 -5.52428 8.99776 
1 3.49698 -7.23816 7.22985 
2 1.88612 -5.47618 7.18272 
1 6.95377 -7.05182 10.6976 
1 5.20639 -5.33182 10.881 
1 5.27552 -7.16023 8.89537 
1 6.93277 -5.36404 8.90764 
1 7.08721 -7.05388 7.27713 
2 5.15053 -5.47855 7.14184 
1 8.64793 -5.16495 10.7038 
1 10.4894 -5.02415 9.05731 
1 10.6693 -6.78009 7.19031 
1 8.89352 -6.89459 8.937 
1 8.81046 -5.19287 7.18393 
2 -12.1974 -1.80234 7.52451 
1 -9.1444 -1.66983 10.6029 
1 -11.1708 -2.97321 9.69377 
2 -10.7267 -3.74799 7.15058 
1 -8.80253 -3.59764 8.82742 
2 -9.13359 -1.67723 7.30485 
1 -11.0067 -0.562245 9.42821 
2 1.7964 -7.14146 12.5506 
1 -7.48732 -3.46812 10.8953 
1 -5.40573 -1.69851 10.7919 
1 -7.27904 -1.78141 9.05541 
2 -5.58411 -3.49444 9.02297 
1 -7.09214 -3.59059 7.07502 
1 -5.4852 -1.74437 7.23479 
1 -7.13739 0.0472929 7.29451 
1 1.79987 -5.15971 14.2184 
1 -0.385473 -6.34693 14.3411 
1 -1.715 -0.0203644 9.05912 
1 -3.70981 -3.54407 10.7752 
1 -1.76583 -1.86255 10.8038 
1 -3.58142 -1.84809 8.95778 
2 -1.74393 -3.5466 8.93444 
1 -3.61331 -3.522 7.22851 
1 -1.85476 -1.82971 7.22451 
1 -0.0991788 -0.00304484 10.7066 
1 3.52365 -0.0974054 10.6721 
1 1.68681 0.0227009 8.99772 
1 0.0929196 -3.55271 10.7028 
1 0.0460649 -1.73127 9.04778 
2 0.108265 -3.63421 7.23908 
1 1.711 -1.64922 7.10345 
2 3.5081 -3.45554 7.04299 
1 1.85268 -1.86603 10.6515 
1 1.83267 -3.6167 8.99306 
1 3.52984 -1.80059 8.83254 
1 3.59492 -3.6019 10.6582 
1 3.42544 -0.094754 7.11107 
1 5.26867 -0.0834078 8.97567 
1 6.97498 -3.5671 7.14017 
1 5.22926 -3.56526 8.84909 
1 5.31174 -1.723 7.12721 
1 7.07365 -1.84208 8.80786 
1 6.97988 -3.55652 10.5924 
1 5.18996 -1.78908 10.6355 
1 7.09559 -0.122269 7.07286 
1 7.24717 -0.173656 10.5411 
1 10.8266 -3.79101 6.93098 
1 8.81043 -1.9348 6.98209 
1 9.03074 -1.99604 10.5877 
2 10.6822 -2.23004 8.75251 
1 8.67588 -3.5492 8.88492 
2 8.98269 -0.263038 8.94273 
2 12.7339 -1.87867 7.11456 
1 -0.134963 -8.65631 12.6251 
1 -1.83431 -6.81685 12.5825 
1 -3.65996 -5.13196 12.4895 
2 -0.149725 0.0614363 -14.5667 
2 5.36164 0.0506429 -12.5272 
2 7.39692 -0.046202 -10.9709 
1 10.4115 -0.177517 -10.7793 
1 -5.40613 0.203497 -5.1571 
1 1.78922 0.0348589 -5.45184 
2 14.2609 -0.198331 -3.49596 
1 -1.77995 -0.0945459 -1.79189 
1 3.5629 -0.0843233 14.1033 
2 3.45828 0.0558683 -0.0273501 
1 -8.761 0.119467 5.56193 
2 -3.55143 0.043531 7.25404 
2 -0.0575803 0.0548187 7.23123 
1 -3.55036 -0.0896991 10.7672 
1 12.0292 0.0390506 8.98157 
2 10.6475 -0.0914664 7.02023 
1 -1.68365 -0.0902012 12.4948 
1 -7.42207 1.72167 -12.309 
1 -5.66051 3.60605 -12.6285 
2 -1.98928 1.97028 -14.4473 
2 -3.77833 1.87075 -12.6554 
1 -1.82522 3.66573 -12.5226 
2 -0.0565555 1.91599 -12.456 
1 0.00070888 5.35869 12.613 
1 -0.0734876 3.70333 -14.4051 
1 3.46662 3.64834 -14.2618 
1 3.35066 1.79752 -12.5291 
2 1.74945 3.58953 -12.4367 
1 1.65456 1.90199 -14.4713 
1 4.93764 1.79484 -14.2208 
1 7.08832 1.8951 -12.5622 
1 5.27436 3.69912 -12.5291 
1 1.72621 6.97376 12.465 
1 -1.67184 7.04068 -12.4612 
1 -3.5358 5.30567 -12.7097 
1 -0.0839934 5.27638 -12.5473 
1 1.69608 7.05765 -12.3598 
1 3.51151 5.36885 -12.4641 
1 -12.3102 1.84564 -7.23658 
1 -11.4651 3.07877 -9.3216 
1 -9.26828 1.75778 -10.6156 
2 -9.0994 3.76092 -8.78552 
2 -9.19626 1.90481 -7.18102 
1 -11.0088 3.82801 -6.99691 
1 -10.9467 0.834977 -9.18664 
1 -7.40057 3.58542 -10.8019 
2 -5.4877 1.97267 -10.7394 
2 -7.30558 1.84832 -8.827 
1 -5.64019 3.75637 -8.99234 
1 -7.22869 3.7721 -6.99379 
2 -5.48136 1.74181 -7.07452 
1 -3.64143 3.68308 -10.8374 
1 -1.864 1.83555 -10.6531 
1 -3.65781 1.84987 -8.95109 
2 -1.85217 3.52099 -8.9464 
2 -3.68092 3.57944 -7.15332 
1 -1.83707 1.68862 -7.05558 
1 -0.134511 3.56839 -7.15141 
1 -0.0892406 1.84993 -8.96859 
1 -0.0914534 3.61765 -10.6926 
1 3.58442 3.54684 -10.6677 
1 1.72233 1.79798 -10.6001 
1 3.59597 1.65573 -9.09118 
2 1.87524 3.59771 -8.90235 
1 3.70062 3.53034 -7.18091 
2 1.87917 1.70368 -7.2142 
1 3.40562 -0.054817 -10.8283 
2 7.18519 3.4981 -10.7226 
1 5.30022 1.9868 -10.8334 
1 7.27386 1.78897 -9.02886 
1 5.36141 3.58007 -8.9888 
1 7.04399 3.40953 -7.21417 
1 5.35129 1.79735 -7.37967 
1 3.60728 5.23478 12.6777 
2 7.11007 0.0698938 -7.23874 
1 8.98355 1.8995 -10.7801 
2 10.5759 1.81162 -9.01228 
1 8.79608 3.47692 -8.83432 
1 8.91277 1.7708 -7.12628 
1 10.7398 3.52303 -7.10229 
1 8.85389 -0.0682011 -9.01663 
1 -1.96854 7.03901 12.7099 
2 12.3772 1.62929 -7.23275 
1 -10.7729 5.54975 -8.74936 
1 -10.8091 7.17496 -6.95261 
1 -9.05702 7.24337 -8.87664 
1 -8.97125 5.371 -6.88782 
1 -9.08307 5.40109 -10.7256 
2 -5.62665 5.31002 -10.9267 
1 -7.33843 7.2338 -10.6446 
1 -7.21099 5.44659 -8.97847 
1 -5.56613 7.20712 -9.0014 
2 -7.14097 7.12737 -7.10498 
1 -5.36312 5.43696 -7.11625 
2 -3.79987 7.21909 -10.9048 
1 -1.82006 5.35065 -10.7956 
1 -1.9312 7.10832 -9.0006 
2 -3.78715 5.4234 -8.98946 
1 -3.62856 7.23628 -7.16552 
1 -1.94812 5.40917 -7.06221 
2 -0.116229 5.43396 -8.94741 
1 -0.1614 7.14548 -7.0867 
1 -0.105722 7.11378 -10.7355 
1 3.57571 7.13915 -10.877 
1 1.6431 5.44566 -10.7117 
2 1.90638 7.11137 -9.00439 
1 3.64355 5.36078 -9.02079 
1 3.40432 7.15328 -7.14822 
1 1.67085 5.40594 -7.20498 
1 7.20252 7.03875 -10.8051 
1 5.35057 5.45572 -10.763 
1 7.1241 5.33754 -8.9427 
1 5.40808 7.0934 -9.03098 
1 7.06696 7.19024 -7.20991 
1 5.35283 5.42628 -7.23585 
1 8.83086 5.34598 -10.6432 
1 10.4492 5.18913 -8.94975 
1 8.89013 7.05117 -8.92376 
1 8.86051 5.24631 -7.06877 
2 10.5415 7.02015 -6.94408 
1 -8.87599 8.9799 -6.86932 
1 -5.49532 8.98062 -10.6182 
1 -5.23439 10.5888 -8.97665 
1 -7.29297 8.99187 -8.77428 
1 -5.41944 8.85571 -7.14012 
1 -7.18917 10.6644 -7.05744 
2 -1.73148 8.81595 -10.7695 
2 -1.88081 10.7091 -8.99129 
1 -3.52963 10.5909 -7.32413 
1 -3.68675 8.77805 -8.90588 
1 -1.75037 8.86893 -7.17258 
1 -0.0555708 10.7618 -7.08347 
1 -0.0380541 12.2501 -8.92333 
1 -0.0506606 8.88358 -8.91418 
1 -1.70757 12.5025 -7.17233 
1 1.63466 8.83888 -10.8302 
1 1.71566 10.4705 -8.94406 
1 3.61033 10.6856 -7.22788 
1 3.58534 8.88215 -8.88065 
1 1.65235 8.83175 -7.23806 
1 5.19642 8.87623 -10.7133 
1 5.24514 10.5951 -8.92781 
1 7.06538 10.6631 -7.20261 
1 7.03574 8.95259 -8.93085 
1 5.25828 8.8153 -7.23096 
1 8.87219 8.91358 -7.20774 
2 1.75673 12.4177 -7.17982 
2 -14.2766 3.40706 -3.2903 
1 -14.2613 0.164769 -3.29923 
1 -12.7399 0.280621 -5.23481 
2 -12.7446 3.51789 -5.17899 
1 -12.3762 1.72429 -3.20311 
2 -10.9132 1.98409 -5.24383 
1 -10.7762 3.67532 -3.42693 
1 -9.01877 3.63857 -5.23952 
2 -9.10617 1.94386 -3.32375 
1 -10.6985 0.0649221 -3.5364 
1 -7.2981 1.91611 -5.40463 
2 -6.96526 3.55165 -3.46866 
1 -5.4367 3.49822 -5.37639 
1 -5.24539 1.77848 -3.44401 
2 -7.125 0.164639 -3.40583 
1 -3.65618 5.32703 12.7709 
1 -3.55913 1.76038 -5.16921 
1 -1.7488 3.56676 -5.26418 
1 -3.47796 3.6266 -3.57203 
1 -1.82226 1.79766 -3.58803 
1 -0.0221623 3.64471 -3.66381 
1 0.117976 1.71961 -5.3826 
1 3.72397 1.86036 -5.47381 
2 1.73406 3.61384 -5.53833 
1 3.44806 3.63862 -3.66328 
2 1.81987 1.70483 -3.65061 
1 6.9798 1.51353 12.4788 
1 3.57801 0.0857958 -3.61976 
1 5.32844 0.109123 -5.35367 
1 7.03601 0.0483728 -3.61214 
1 7.09809 1.81495 -5.39718 
1 7.16223 3.6096 -3.62358 
1 5.37584 3.5725 -5.47249 
1 5.3734 1.90965 -3.67992 
1 10.6944 1.82882 -5.3102 
1 10.6762 3.52295 -3.58062 
2 8.85509 3.5015 -5.34188 
1 8.78921 1.78225 -3.53665 
1 12.5204 1.82903 -3.50841 
1 8.94259 0.0218089 -5.29003 
1 10.7206 0.114463 -3.65753 
1 12.4916 3.32132 -5.3299 
1 14.0505 3.69005 -3.37161 
1 5.14466 3.47684 12.5814 
1 -12.4905 5.26918 -3.48086 
1 -10.6714 6.94774 -3.43688 
1 -10.8032 5.37944 -5.30409 
2 -8.97168 7.13907 -5.16723 
1 -8.89643 5.23004 -3.46268 
1 -6.95846 7.22392 -3.55396 
1 -7.14046 5.40566 -5.16501 
1 -5.30178 7.05391 -5.34044 
1 -5.27793 5.26712 -3.53103 
1 -2.01518 7.21995 -5.27746 
1 -3.49064 7.22564 -3.40165 
1 -3.5971 5.42067 -5.3808 
1 -1.82547 5.37876 -3.6291 
1 -0.14634 5.47501 -5.36848 
2 -0.174991 7.27067 -3.61678 
1 1.61708 7.15501 -5.37276 
2 3.49839 7.07607 -3.58985 
1 3.43005 5.32872 -5.54115 
1 1.69538 5.4301 -3.73884 
1 7.03969 6.90544 -3.62829 
1 7.07537 5.34983 -5.45198 
2 5.24655 6.97905 -5.36627 
1 5.26608 5.18024 -3.68794 
1 10.6064 7.05886 -3.63527 
1 10.7913 5.18057 -5.42394 
1 8.82761 7.08603 -5.39239 
1 8.96044 5.28425 -3.71368 
2 12.3261 5.35815 -3.50603 
1 -10.6023 8.9821 -5.01433 
1 -8.67955 10.6946 -5.22986 
1 -8.77948 8.90211 -3.49467 
1 -10.2681 10.8747 -3.4722 
1 -6.93077 10.6761 -3.55016 
1 -5.4075 10.8797 -5.55984 
1 -6.9786 8.90611 -5.27481 
1 -5.34556 8.94515 -3.47267 
1 -1.73321 10.6051 -5.37799 
1 -3.45959 10.7015 -3.6791 
2 -3.74865 8.9159 -5.336 
1 -1.75793 9.0237 -3.50014 
1 -0.0280088 10.6548 -3.66663 
1 -0.0372979 8.92612 -5.51161 
1 -1.72092 12.497 -3.64095 
2 1.71061 10.6832 -5.34504 
1 3.58996 10.6632 -3.53663 
1 3.54166 8.86682 -5.35357 
1 1.75015 8.98013 -3.64041 
1 1.75312 12.4184 -3.48443 
1 7.17405 10.7881 -3.65484 
2 5.32709 10.8465 -5.40285 
1 7.03518 8.83214 -5.45423 
2 5.39393 8.84883 -3.5094 
1 10.491 8.76992 -5.19058 
1 8.70186 10.4965 -5.43701 
1 8.75545 8.72877 -3.60773 
1 -5.2525 12.4658 -3.57807 
1 -3.50393 12.4516 -5.58143 
1 -0.13797 12.6402 -5.44345 
1 -3.39495 14.0811 -3.84486 
1 -0.000527353 14.508 -3.37772 
1 3.59841 12.5512 -5.26496 
2 1.71681 14.1565 -5.12854 
1 3.5321 14.3361 -3.37219 
1 5.44022 12.6979 -3.6345 
1 -14.372 -0.124098 0.120268 
1 -14.2403 3.67159 -0.0160888 
1 -14.318 1.75947 -1.48818 
1 -14.3707 1.78779 1.86701 
2 -12.5066 3.6519 2.01953 
1 -10.7168 0.0735452 0.143964 
1 -8.89235 -0.0654413 -1.65075 
1 -12.5994 1.73372 0.102635 
1 -12.5561 3.60645 -1.6779 
1 -12.3783 0.0151654 -1.65735 
2 -12.4805 0.0166357 1.89951 
2 -10.7853 3.52057 0.0553031 
1 -10.6201 1.7842 -1.52307 
1 -10.6933 1.80955 1.97503 
1 -8.7799 3.56538 -1.49829 
1 -8.88889 3.52061 1.77143 
1 -8.92247 1.73777 0.145297 
2 -8.87475 0.0831846 1.89177 
2 -5.23414 -0.0167181 1.87802 
1 -7.07681 -0.011587 0.0630385 
1 -7.01951 3.5265 0.134583 
1 -7.00806 1.75403 -1.5845 
1 -7.08773 1.73537 1.83049 
1 -5.27666 3.45888 -1.65233 
1 -5.33455 3.50467 1.73983 
1 -5.16362 1.73376 0.0225561 
1 -5.28849 -0.0502132 -1.65694 
1 -3.41772 0.0671567 0.0603675 
2 -3.48603 3.63957 0.109048 
1 -3.47251 1.80254 -1.72091 
2 -1.66698 3.65873 -1.86418 
1 -3.31788 1.76472 1.77852 
1 -1.62688 3.53546 1.90606 
1 -1.63836 1.73714 -0.023909 
1 -0.12593 1.70837 -1.80801 
1 -0.134604 3.50956 0.133965 
1 -0.0608557 1.74909 1.72522 
1 1.78373 3.41737 12.5983 
1 3.4186 1.6375 12.5413 
2 3.54671 3.61018 0.00183835 
1 3.48308 1.9711 -1.89726 
2 1.5874 3.6762 -1.75643 
1 3.59674 1.80499 1.75852 
1 1.74716 3.62044 1.7285 
2 1.60903 1.81654 0.0245517 
1 7.14365 3.69595 -0.0284062 
1 7.19997 1.82411 -1.81125 
1 7.19359 2.00294 1.78927 
1 5.3116 3.51749 -1.82493 
1 5.39816 3.7584 2.01608 
2 5.46658 1.86445 0.151022 
2 8.95296 0.1099 1.87796 
1 10.6654 3.67781 0.118148 
1 10.6246 1.92498 1.92427 
2 10.68 1.83688 -1.74161 
1 8.85739 3.66665 -1.80192 
1 8.91939 3.63238 1.79522 
1 8.87479 1.86774 0.0243554 
1 12.4389 3.58707 1.77137 
1 12.3381 3.60227 -1.63994 
1 12.4453 1.91677 0.140823 
1 12.4768 0.0677369 1.5051 
1 14.2289 3.58921 -0.104876 
2 14.2972 1.82942 -1.88057 
1 14.3429 2.29051 1.92999 
1 14.5219 0.703556 0.245896 
1 -12.3806 7.14542 -1.74882 
1 -12.6311 5.45405 -0.00326467 
1 -12.41 7.10476 1.68732 
1 -10.6228 7.00327 0.0216081 
1 -10.7121 5.28619 -1.67542 
1 -10.5953 5.37652 1.78342 
1 -8.80951 7.12037 -1.74842 
2 -8.86318 7.13852 1.75363 
1 -8.83867 5.35238 -0.0701483 
1 -7.00977 7.02246 -0.0220225 
1 -7.03373 5.3209 -1.82844 
2 -5.25679 7.06509 -1.72582 
1 -7.19107 5.37228 1.88697 
1 -5.15155 7.15199 1.74887 
1 -5.31199 5.28165 0.100902 
1 -3.52088 7.08885 -0.0219196 
1 -1.88459 7.23866 -1.64838 
1 -1.79267 7.22916 1.67688 
1 -3.43228 5.39541 -1.76923 
1 -3.51566 5.34579 1.83844 
2 -1.72334 5.34757 0.0462007 
1 -0.0117621 5.51596 -1.83415 
1 0.0821398 5.45445 1.85847 
1 -0.0174633 7.2613 -0.0213814 
1 3.54131 7.11612 -0.0498134 
1 1.63426 7.22481 -1.79405 
2 1.75041 7.18834 1.77259 
1 3.43436 5.30071 -1.75833 
2 3.624 5.37581 1.82257 
1 1.60388 5.41365 0.0651953 
1 7.12819 7.14333 0.0794592 
1 7.11742 5.27678 -1.91118 
2 5.42509 7.03315 -1.77888 
1 7.23985 5.56188 1.84485 
1 5.36978 7.23877 1.96834 
1 5.38748 5.24712 -0.00147119 
1 10.5502 7.10187 -0.0931557 
1 10.7318 5.38441 1.73276 
1 10.6614 5.33102 -1.77592 
1 8.86473 7.07479 -1.82257 
2 9.06306 7.40491 1.88992 
1 8.88716 5.44545 0.0262376 
2 12.1036 7.34164 1.67994 
1 12.2362 7.19952 -1.70222 
1 12.5182 5.39487 -0.0118674 
2 -8.71914 10.6097 -1.66962 
1 -8.80897 10.7962 1.48059 
2 -10.6292 8.81206 -1.73313 
1 -10.7607 8.93591 1.63752 
1 -8.83585 8.79913 -0.041973 
1 -6.89291 10.7794 -0.125763 
1 -5.20833 10.7543 1.80879 
1 -5.27862 10.8062 -1.77129 
1 -7.06785 8.92099 -1.78569 
1 -6.97734 8.99907 1.50989 
1 -5.16263 8.86249 0.0490122 
1 -7.06016 12.4896 1.70833 
2 -5.34374 12.5842 -0.0364758 
1 -7.19526 12.6618 -1.84413 
1 -3.54955 10.8691 -0.0796298 
2 -1.78985 10.874 1.83377 
1 -1.72426 10.8539 -1.83535 
1 -3.42622 8.96629 -1.63558 
2 -3.40509 9.03625 1.7539 
1 -1.74294 8.95965 -0.0524182 
1 -3.38993 12.5179 -1.79853 
1 0.0524394 8.96792 1.85981 
1 -1.70625 12.4912 -0.0127214 
1 -0.00844297 10.7319 0.0883071 
2 -0.001613 9.14851 -1.70955 
1 3.52956 10.7763 0.0831929 
1 1.79065 10.6923 1.84007 
1 1.82236 10.7904 -1.82022 
1 3.41541 8.93217 -1.83552 
1 3.54641 8.93735 1.86742 
1 1.89433 9.07934 -0.0318344 
2 1.71979 12.5163 0.0271684 
1 -0.0664404 12.4738 -1.86438 
2 3.58324 12.5094 -1.79543 
1 7.14834 10.4934 -0.0192645 
1 5.23125 10.7107 1.88598 
2 5.34384 10.7721 -1.74391 
1 7.09484 8.97276 -1.84406 